 -0.200000003       0.00000000    
 -0.198750004       0.00000000    
 -0.197500005       0.00000000    
 -0.196250007       0.00000000    
 -0.194999993       0.00000000    
 -0.193749994       0.00000000    
 -0.192499995       0.00000000    
 -0.191249996       0.00000000    
 -0.189999998       0.00000000    
 -0.188749999       0.00000000    
 -0.187500000       0.00000000    
 -0.186250001       0.00000000    
 -0.185000002       0.00000000    
 -0.183750004       0.00000000    
 -0.182500005       0.00000000    
 -0.181250006       0.00000000    
 -0.180000007       0.00000000    
 -0.178749993       0.00000000    
 -0.177499995       0.00000000    
 -0.176249996       0.00000000    
 -0.174999997       0.00000000    
 -0.173749998       0.00000000    
 -0.172499999       0.00000000    
 -0.171250001       0.00000000    
 -0.170000002       0.00000000    
 -0.168750003       0.00000000    
 -0.167500004       0.00000000    
 -0.166250005       0.00000000    
 -0.165000007       0.00000000    
 -0.163749993       0.00000000    
 -0.162499994       0.00000000    
 -0.161249995       0.00000000    
 -0.159999996       0.00000000    
 -0.158749998       0.00000000    
 -0.157499999       0.00000000    
 -0.156250000       0.00000000    
 -0.155000001       0.00000000    
 -0.153750002       0.00000000    
 -0.152500004       0.00000000    
 -0.151250005       0.00000000    
 -0.150000006       0.00000000    
 -0.148750007       0.00000000    
 -0.147499993       0.00000000    
 -0.146249995       0.00000000    
 -0.144999996       0.00000000    
 -0.143749997       0.00000000    
 -0.142499998       0.00000000    
 -0.141249999       0.00000000    
 -0.140000001       0.00000000    
 -0.138750002       0.00000000    
 -0.137500003       0.00000000    
 -0.136250004       0.00000000    
 -0.135000005       0.00000000    
 -0.133750007       0.00000000    
 -0.132499993       0.00000000    
 -0.131249994       0.00000000    
 -0.129999995       0.00000000    
 -0.128749996       0.00000000    
 -0.127499998       0.00000000    
 -0.126249999       0.00000000    
 -0.125000000       0.00000000    
 -0.123750001       0.00000000    
 -0.122500002       0.00000000    
 -0.121250004       0.00000000    
 -0.119999997       0.00000000    
 -0.118749999       0.00000000    
 -0.117500000       0.00000000    
 -0.116250001       0.00000000    
 -0.115000002       0.00000000    
 -0.113750003       0.00000000    
 -0.112499997       0.00000000    
 -0.111249998      -2.80259693E-44
 -0.109999999      -1.12103877E-43
 -0.108750001      -2.87266185E-43
 -0.107500002      -5.81538863E-43
 -0.106250003      -1.00052710E-42
 -0.104999997      -1.50219195E-42
 -0.103749998      -1.68015686E-42
 -0.102499999      -1.60728934E-42
 -0.101250000      -3.76949287E-43
 -0.100000001       3.07585013E-42
  -9.87500027E-02   8.26906224E-42
  -9.74999964E-02   1.57856272E-41
  -9.62499976E-02   2.56619788E-41
  -9.49999988E-02   3.44621331E-41
  -9.37500000E-02   3.58830498E-41
  -9.25000012E-02   2.13501834E-41
  -9.12500024E-02  -2.16991067E-41
  -9.00000036E-02  -1.06672444E-40
  -8.87499973E-02  -2.40448803E-40
  -8.74999985E-02  -4.15314036E-40
  -8.62499997E-02  -5.96773780E-40
  -8.50000009E-02  -7.09236389E-40
  -8.37500021E-02  -6.27825152E-40
  -8.25000033E-02  -1.82587789E-40
  -8.12499970E-02   8.15163343E-40
  -7.99999982E-02   2.50730551E-39
  -7.87499994E-02   4.88156473E-39
  -7.75000006E-02   7.62636511E-39
  -7.62500018E-02   9.97021195E-39
  -7.50000030E-02   1.05609195E-38
  -7.37499967E-02   7.47309108E-39
  -7.24999979E-02  -1.54459244E-39
  -7.12499991E-02  -1.84680726E-38
  -7.00000003E-02  -4.39676479E-38
  -6.87500015E-02  -7.59760149E-38
  -6.75000027E-02  -1.08074471E-37
  -6.62499964E-02  -1.28176401E-37
  -6.49999976E-02  -1.18251844E-37
  -6.37499988E-02  -5.60695445E-38
  -6.25000000E-02   8.00360698E-38
  -6.12500012E-02   3.02702104E-37
  -5.99999987E-02   6.03550369E-37
  -5.87499999E-02   9.39280809E-37
  -5.75000010E-02   1.21939871E-36
  -5.62499985E-02   1.30126145E-36
  -5.49999997E-02   9.99801747E-37
  -5.37500009E-02   1.19569558E-37
  -5.24999984E-02  -1.48551520E-36
  -5.12499996E-02  -3.82506608E-36
  -5.00000007E-02  -6.66792498E-36
  -4.87499982E-02  -9.44396567E-36
  -4.74999994E-02  -1.11896867E-35
  -4.62500006E-02  -1.05867113E-35
  -4.50000018E-02  -6.14492900E-36
  -4.37499993E-02   3.43100355E-36
  -4.25000004E-02   1.86877658E-35
  -4.12500016E-02   3.87370187E-35
  -3.99999991E-02   6.05709854E-35
  -3.87500003E-02   7.86013813E-35
  -3.75000015E-02   8.47140208E-35
  -3.62499990E-02   6.91529781E-35
  -3.50000001E-02   2.24829021E-35
  -3.37500013E-02  -6.13067370E-35
  -3.24999988E-02  -1.80809846E-34
  -3.12500000E-02  -3.23010190E-34
  -2.99999993E-02  -4.60048081E-34
  -2.87500005E-02  -5.48509266E-34
  -2.74999999E-02  -5.32950496E-34
  -2.62499992E-02  -3.55094711E-34
  -2.50000004E-02   3.07505792E-35
  -2.37499997E-02   6.37046169E-34
  -2.25000009E-02   1.42025955E-33
  -2.12500002E-02   2.26147426E-33
  -1.99999996E-02   2.95790617E-33
  -1.87500007E-02   3.23380553E-33
  -1.75000001E-02   2.77818484E-33
  -1.62499994E-02   1.31304785E-33
  -1.49999997E-02  -1.31103886E-33
  -1.37499999E-02  -5.00469181E-33
  -1.25000002E-02  -9.33821602E-33
  -1.12500004E-02  -1.34819328E-32
  -9.99999978E-03  -1.62264873E-32
  -8.75000004E-03  -1.61181302E-32
  -7.49999983E-03  -1.17293243E-32
  -6.25000009E-03  -2.05746482E-33
  -4.99999989E-03   1.29945831E-32
  -3.74999992E-03   3.21475517E-32
  -2.49999994E-03   5.24173150E-32
  -1.24999997E-03   6.90862539E-32
   0.00000000       7.61244676E-32
   1.24999997E-03   6.71590544E-32
   2.49999994E-03   3.69869151E-32
   3.74999992E-03  -1.65221373E-32
   4.99999989E-03  -9.04599679E-32
   6.25000009E-03  -1.75345718E-31
   7.49999983E-03  -2.54621927E-31
   8.75000004E-03  -3.05773376E-31
   9.99999978E-03  -3.03492070E-31
   1.12500004E-02  -2.24955741E-31
   1.25000002E-02  -5.67598732E-32
   1.37499999E-02   1.97589927E-31
   1.49999997E-02   5.11332378E-31
   1.62499994E-02   8.31383614E-31
   1.75000001E-02   1.08072553E-30
   1.87500007E-02   1.16791664E-30
   1.99999996E-02   1.00424185E-30
   2.12500002E-02   5.27253603E-31
   2.25000009E-02  -2.72700113E-31
   2.37499997E-02  -1.32851879E-30
   2.50000004E-02  -2.48210898E-30
   2.62499992E-02  -3.48739232E-30
   2.74999999E-02  -4.03669838E-30
   2.87500005E-02  -3.81317051E-30
   2.99999993E-02  -2.56624523E-30
   3.12500000E-02  -2.00282444E-31
   3.24999988E-02   3.14076217E-30
   3.37500013E-02   7.01536608E-30
   3.50000001E-02   1.06779778E-29
   3.62499990E-02   1.31454920E-29
   3.75000015E-02   1.33480953E-29
   3.87500003E-02   1.03592507E-29
   3.99999991E-02   3.67807029E-30
   4.12500016E-02  -6.48565786E-30
   4.25000004E-02  -1.89926755E-29
   4.37499993E-02  -3.16998529E-29
   4.50000018E-02  -4.16018833E-29
   4.62500006E-02  -4.52343798E-29
   4.74999994E-02  -3.93369325E-29
   4.87499982E-02  -2.17113287E-29
   5.00000007E-02   7.86007520E-30
   5.12499996E-02   4.68334313E-29
   5.24999984E-02   8.94949673E-29
   5.37500009E-02   1.27154493E-28
   5.49999997E-02   1.49108457E-28
   5.62499985E-02   1.44417277E-28
   5.75000010E-02   1.04366228E-28
   5.87499999E-02   2.52747219E-29
   5.99999987E-02  -8.88764669E-29
   6.12500012E-02  -2.24668322E-28
   6.25000000E-02  -3.59014166E-28
   6.37499988E-02  -4.61052751E-28
   6.49999976E-02  -4.96444988E-28
   6.62499964E-02  -4.33901761E-28
   6.75000027E-02  -2.53208534E-28
   6.87500015E-02   4.65633226E-29
   7.00000003E-02   4.40431289E-28
   7.12499991E-02   8.74448269E-28
   7.24999979E-02   1.26804065E-27
   7.37499967E-02   1.52293527E-27
   7.50000030E-02   1.53879106E-27
   7.62500018E-02   1.23421362E-27
   7.75000006E-02   5.70243927E-28
   7.87499994E-02  -4.28014193E-28
   7.99999982E-02  -1.65687233E-27
   8.12499970E-02  -2.93192038E-27
   8.25000033E-02  -4.00245374E-27
   8.37500021E-02  -4.58431031E-27
   8.50000009E-02  -4.40955913E-27
   8.62499997E-02  -3.28741065E-27
   8.74999985E-02  -1.16669475E-27
   8.87499973E-02   1.81286360E-27
   9.00000036E-02   5.29461291E-27
   9.12500024E-02   8.71687140E-27
   9.25000012E-02   1.13709931E-26
   9.37500000E-02   1.25063997E-26
   9.49999988E-02   1.14736961E-26
   9.62499976E-02   7.88648899E-27
   9.74999964E-02   1.77322777E-27
   9.87500027E-02  -6.31542435E-27
  0.100000001      -1.52783190E-26
  0.101250000      -2.35421609E-26
  0.102499999      -2.92591067E-26
  0.103749998      -3.06147149E-26
  0.104999997      -2.62117925E-26
  0.106250003      -1.54704282E-26
  0.107500002       1.03511965E-27
  0.108750001       2.13901653E-26
  0.109999999       4.23837153E-26
  0.111249998       5.98358947E-26
  0.112499997       6.92166588E-26
  0.113750003       6.65047954E-26
  0.115000002       4.91719774E-26
  0.116250001       1.71189765E-26
  0.117500000      -2.66460450E-26
  0.118749999      -7.58006768E-26
  0.119999997      -1.21146232E-25
  0.121250004      -1.51776542E-25
  0.122500002      -1.56934448E-25
  0.123750001      -1.28356975E-25
  0.125000000      -6.27529174E-26
  0.126249999       3.60703321E-26
  0.127499998       1.55975624E-25
  0.128749996       2.76672132E-25
  0.129999995       3.71661634E-25
  0.131249994       4.12054000E-25
  0.132499993       3.71992833E-25
  0.133750007       2.35028830E-25
  0.135000005       3.96310594E-28
  0.136250004      -3.12124699E-25
  0.137500003      -6.60163327E-25
  0.138750002      -9.80754377E-25
  0.140000001      -1.19713044E-24
  0.141249999      -1.23031121E-24
  0.142499998      -1.01452985E-24
  0.143749997      -5.14505732E-25
  0.144999996       2.58348471E-25
  0.146249995       1.23429496E-24
  0.147499993       2.28179476E-24
  0.148750007       3.21515783E-24
  0.150000006       3.81494120E-24
  0.151250005       3.86068921E-24
  0.152500004       3.17312673E-24
  0.153750002       1.66032837E-24
  0.155000001      -6.39836896E-25
  0.156250000      -3.53002121E-24
  0.157499999      -6.64549364E-24
  0.158749998      -9.47530416E-24
  0.159999996      -1.14162862E-23
  0.161249995      -1.18585366E-23
  0.162499994      -1.02948573E-23
  0.163749993      -6.44034523E-24
  0.165000007      -3.42981930E-25
  0.166250005       7.53705161E-24
  0.167500004       1.63014509E-23
  0.168750003       2.46591797E-23
  0.170000002       3.10526797E-23
  0.171250001       3.38623056E-23
  0.172499999       3.16718976E-23
  0.173749998       2.35636539E-23
  0.174999997       9.39790980E-24
  0.176249996      -9.97414745E-24
  0.177499995      -3.26170003E-23
  0.178749993      -5.55798703E-23
  0.180000007      -7.51533900E-23
  0.181250006      -8.73123682E-23
  0.182500005      -8.83111671E-23
  0.183750004      -7.53651834E-23
  0.185000002      -4.73232514E-23
  0.186250001      -5.21732487E-24
  0.187500000       4.74273526E-23
  0.188749999       1.04622633E-22
  0.189999998       1.58353641E-22
  0.191249996       1.99432519E-22
  0.192499995       2.18715308E-22
  0.193749994       2.08558024E-22
  0.194999993       1.64325381E-22
  0.196250007       8.57212800E-23
  0.197500005      -2.23041223E-23
  0.198750004      -1.49294388E-22
  0.200000003      -2.79835191E-22
  0.201250002      -3.94974173E-22
  0.202500001      -4.74449373E-22
  0.203749999      -4.99525759E-22
  0.204999998      -4.56109682E-22
  0.206249997      -3.37712262E-22
  0.207499996      -1.47782337E-22
  0.208749995       9.90519817E-23
  0.209999993       3.77204103E-22
  0.211250007       6.52020019E-22
  0.212500006       8.83329031E-22
  0.213750005       1.03039078E-21
  0.215000004       1.05772692E-21
  0.216250002       9.41113938E-22
  0.217500001       6.72883156E-22
  0.218750000       2.65647660E-22
  0.219999999      -2.46321452E-22
  0.221249998      -8.08614285E-22
  0.222499996      -1.35130040E-21
  0.223749995      -1.79642768E-21
  0.224999994      -2.06774029E-21
  0.226249993      -2.10154746E-21
  0.227500007      -1.85736500E-21
  0.228750005      -1.32680558E-21
  0.230000004      -5.39242444E-22
  0.231250003       4.36968761E-22
  0.232500002       1.49845444E-21
  0.233750001       2.51609238E-21
  0.234999999       3.34898672E-21
  0.236249998       3.86182961E-21
  0.237499997       3.94371080E-21
  0.238749996       3.52600519E-21
  0.239999995       2.59682812E-21
  0.241249993       1.20970813E-21
  0.242500007      -5.15354726E-22
  0.243750006      -2.39947243E-21
  0.245000005      -4.22108732E-21
  0.246250004      -5.73966975E-21
  0.247500002      -6.72463951E-21
  0.248750001      -6.98630606E-21
  0.250000000      -6.40502872E-21
  0.251249999      -4.95460992E-21
  0.252499998      -2.71625676E-21
  0.253749996       1.19723993E-22
  0.254999995       3.26605096E-21
  0.256249994       6.36435469E-21
  0.257499993       9.02298952E-21
  0.258749992       1.08632030E-20
  0.259999990       1.15686451E-20
  0.261249989       1.09322169E-20
  0.262499988       8.89395419E-21
  0.263749987       5.56410471E-21
  0.264999986       1.22681235E-21
  0.266250014      -3.67818259E-21
  0.267500013      -8.59585655E-21
  0.268750012      -1.29154163E-20
  0.270000011      -1.60433554E-20
  0.271250010      -1.74819760E-20
  0.272500008      -1.69036103E-20
  0.273750007      -1.42102246E-20
  0.275000006      -9.56875828E-21
  0.276250005      -3.41467185E-21
  0.277500004       3.58041493E-21
  0.278750002       1.05767457E-20
  0.280000001       1.66648604E-20
  0.281250000       2.09842813E-20
  0.282499999       2.28481325E-20
  0.283749998       2.18566079E-20
  0.284999996       1.79815527E-20
  0.286249995       1.16061865E-20
  0.287499994       3.50840781E-21
  0.288749993      -5.21712102E-21
  0.289999992      -1.32944153E-20
  0.291249990      -1.94461519E-20
  0.292499989      -2.25964563E-20
  0.293749988      -2.20679509E-20
  0.294999987      -1.77409804E-20
  0.296249986      -1.01438451E-20
  0.297500014      -4.48820809E-22
  0.298750013       9.64031344E-21
  0.300000012       1.81084489E-20
  0.301250011       2.29386263E-20
  0.302500010       2.24746976E-20
  0.303750008       1.57859520E-20
  0.305000007       2.97293115E-21
  0.306250006      -1.46478096E-20
  0.307500005      -3.45338826E-20
  0.308750004      -5.31174580E-20
  0.310000002      -6.62233237E-20
  0.311250001      -6.96777140E-20
  0.312500000      -6.00446788E-20
  0.313749999      -3.53935171E-20
  0.314999998       4.02312054E-21
  0.316249996       5.53099745E-20
  0.317499995       1.12808565E-19
  0.318749994       1.68404150E-19
  0.319999993       2.12298386E-19
  0.321249992       2.34219318E-19
  0.322499990       2.24965571E-19
  0.323749989       1.78108736E-19
  0.324999988       9.16192549E-20
  0.326249987      -3.08523925E-20
  0.327499986      -1.79306054E-19
  0.328750014      -3.37557364E-19
  0.330000013      -4.84376597E-19
  0.331250012      -5.95617397E-19
  0.332500011      -6.47206067E-19
  0.333750010      -6.18708196E-19
  0.335000008      -4.97051744E-19
  0.336250007      -2.79886926E-19
  0.337500006       2.19771194E-20
  0.338750005       3.83582520E-19
  0.340000004       7.66683621E-19
  0.341250002       1.12266473E-18
  0.342500001       1.39745764E-18
  0.343750000       1.53810647E-18
  0.344999999       1.50033213E-18
  0.346249998       1.25619835E-18
  0.347499996       8.00820693E-19
  0.348749995       1.57023864E-19
  0.349999994      -6.23036056E-19
  0.351249993      -1.45999891E-18
  0.352499992      -2.25348215E-18
  0.353749990      -2.89210921E-18
  0.354999989      -3.26661461E-18
  0.356249988      -3.28471912E-18
  0.357499987      -2.88603295E-18
  0.358749986      -2.05498423E-18
  0.360000014      -8.29749215E-19
  0.361250013       6.94592039E-19
  0.362500012       2.36992767E-18
  0.363750011       4.00650017E-18
  0.365000010       5.39136388E-18
  0.366250008       6.31247044E-18
  0.367500007       6.58600501E-18
  0.368750006       6.08385261E-18
  0.370000005       4.75764427E-18
  0.371250004       2.65582569E-18
  0.372500002      -6.93616599E-20
  0.373750001      -3.16718213E-18
  0.375000000      -6.30687704E-18
  0.376249999      -9.10860602E-18
  0.377499998      -1.11844803E-17
  0.378749996      -1.21857369E-17
  0.379999995      -1.18508562E-17
  0.381249994      -1.00486927E-17
  0.382499993      -6.81063252E-18
  0.383749992      -2.34648889E-18
  0.384999990       2.95971510E-18
  0.386249989       8.57585042E-18
  0.387499988       1.38689171E-17
  0.388749987       1.81699585E-17
  0.389999986       2.08506441E-17
  0.391250014       2.14034324E-17
  0.392500013       1.95159567E-17
  0.393750012       1.51299755E-17
  0.395000011       8.47615448E-18
  0.396250010       7.79728621E-20
  0.397500008      -9.27888860E-18
  0.398750007      -1.86115175E-17
  0.400000006      -2.68347879E-17
  0.401250005      -3.28781000E-17
  0.402500004      -3.58121460E-17
  0.403750002      -3.49716511E-17
  0.405000001      -3.00592670E-17
  0.406250000      -2.12165905E-17
  0.407499999      -9.05089280E-18
  0.408749998       5.38966651E-18
  0.409999996       2.06942176E-17
  0.411249995       3.52165197E-17
  0.412499994       4.72411451E-17
  0.413749993       5.51727450E-17
  0.414999992       5.77286636E-17
  0.416249990       5.41130009E-17
  0.417499989       4.41506031E-17
  0.418749988       2.83622034E-17
  0.419999987       7.96713731E-18
  0.421249986      -1.51927204E-17
  0.422500014      -3.88057061E-17
  0.423750013      -6.03088054E-17
  0.425000012      -7.71523864E-17
  0.426250011      -8.70851249E-17
  0.427500010      -8.84285787E-17
  0.428750008      -8.03097745E-17
  0.430000007      -6.28224418E-17
  0.431250006      -3.70933562E-17
  0.432500005      -5.23914569E-18
  0.433750004       2.97897782E-17
  0.435000002       6.44691864E-17
  0.436250001       9.50435288E-17
  0.437500000       1.17918858E-16
  0.438749999       1.30066210E-16
  0.439999998       1.29391416E-16
  0.441249996       1.15028146E-16
  0.442499995       8.75166022E-17
  0.443749994       4.88404955E-17
  0.444999993       2.30901285E-18
  0.446249992      -4.77132170E-17
  0.447499990      -9.62079146E-17
  0.448749989      -1.38000659E-16
  0.449999988      -1.68305235E-16
  0.451249987      -1.83257669E-16
  0.452499986      -1.80381000E-16
  0.453750014      -1.58925946E-16
  0.455000013      -1.20043495E-16
  0.456250012      -6.67618862E-17
  0.457500011      -3.76078203E-18
  0.458750010       6.30425182E-17
  0.460000008       1.27058158E-16
  0.461250007       1.81685166E-16
  0.462500006       2.21001087E-16
  0.463750005       2.40405765E-16
  0.465000004       2.37147573E-16
  0.466250002       2.10670779E-16
  0.467500001       1.62740758E-16
  0.468750000       9.73272554E-17
  0.469999999       2.02522401E-17
  0.471249998      -6.13644268E-17
  0.472499996      -1.39805064E-16
  0.473749995      -2.07526090E-16
  0.474999994      -2.57918727E-16
  0.476249993      -2.85976084E-16
  0.477499992      -2.88793819E-16
  0.478749990      -2.65850740E-16
  0.479999989      -2.19040748E-16
  0.481249988      -1.52456084E-16
  0.482499987      -7.19504792E-17
  0.483749986       1.54640737E-17
  0.485000014       1.02315419E-16
  0.486250013       1.81383609E-16
  0.487500012       2.46348151E-16
  0.488750011       2.92302653E-16
  0.490000010       3.16088767E-16
  0.491250008       3.16427316E-16
  0.492500007       2.93852008E-16
  0.493750006       2.50476669E-16
  0.495000005       1.89647249E-16
  0.496250004       1.15541011E-16
  0.497500002       3.27764693E-17
  0.498750001      -5.39117181E-17
  0.500000000      -1.39897126E-16
  0.501250029      -2.20773711E-16
  0.502499998      -2.92370389E-16
  0.503750026      -3.50706501E-16
  0.504999995      -3.91942844E-16
  0.506250024      -4.12388658E-16
  0.507499993      -4.08618699E-16
  0.508750021      -3.77734872E-16
  0.509999990      -3.17777195E-16
  0.511250019      -2.28253356E-16
  0.512499988      -1.10719402E-16
  0.513750017       3.06864850E-17
  0.514999986       1.88873604E-16
  0.516250014       3.53709497E-16
  0.517499983       5.12311202E-16
  0.518750012       6.49777185E-16
  0.519999981       7.50364677E-16
  0.521250010       7.99049960E-16
  0.522499979       7.83339987E-16
  0.523750007       6.95142523E-16
  0.524999976       5.32458834E-16
  0.526250005       3.00645848E-16
  0.527499974       1.30119655E-17
  0.528750002      -3.09437520E-16
  0.529999971      -6.39205102E-16
  0.531250000      -9.44445442E-16
  0.532500029      -1.19191649E-15
  0.533749998      -1.35048339E-15
  0.535000026      -1.39481868E-15
  0.536249995      -1.30887332E-15
  0.537500024      -1.08867249E-15
  0.538749993      -7.44024106E-16
  0.540000021      -2.98817739E-16
  0.541249990       2.10266718E-16
  0.542500019       7.36644702E-16
  0.543749988       1.22811360E-15
  0.545000017       1.63215859E-15
  0.546249986       1.90173550E-15
  0.547500014       2.00088579E-15
  0.548749983       1.90950068E-15
  0.550000012       1.62660628E-15
  0.551249981       1.17166881E-15
  0.552500010       5.83625288E-16
  0.553749979      -8.23981740E-17
  0.555000007      -7.60439287E-16
  0.556249976      -1.38061140E-15
  0.557500005      -1.87683761E-15
  0.558749974      -2.19452324E-15
  0.560000002      -2.29723636E-15
  0.561249971      -2.17153074E-15
  0.562500000      -1.82923033E-15
  0.563750029      -1.30676823E-15
  0.564999998      -6.61521773E-16
  0.566250026       3.45440451E-17
  0.567499995       7.03252387E-16
  0.568750024       1.26964733E-15
  0.569999993       1.67133619E-15
  0.571250021       1.86654446E-15
  0.572499990       1.83978881E-15
  0.573750019       1.60432508E-15
  0.574999988       1.20090023E-15
  0.576250017       6.92797565E-16
  0.577499986       1.57649441E-16
  0.578750014      -3.23052596E-16
  0.579999983      -6.75460706E-16
  0.581250012      -8.44383534E-16
  0.582499981      -8.02276467E-16
  0.583750010      -5.54848191E-16
  0.584999979      -1.42286037E-16
  0.586250007       3.64377957E-16
  0.587499976       8.71617761E-16
  0.588750005       1.27569229E-15
  0.589999974       1.47747512E-15
  0.591250002       1.39800670E-15
  0.592499971       9.92692333E-16
  0.593750000       2.62079829E-16
  0.595000029      -7.42569433E-16
  0.596249998      -1.92016842E-15
  0.597500026      -3.12766069E-15
  0.598749995      -4.19448683E-15
  0.600000024      -4.94240252E-15
  0.601249993      -5.20859152E-15
  0.602500021      -4.86939251E-15
  0.603749990      -3.86164269E-15
  0.605000019      -2.19866460E-15
  0.606249988       2.16725986E-17
  0.607500017       2.61862629E-15
  0.608749986       5.34074941E-15
  0.610000014       7.88808834E-15
  0.611249983       9.94266671E-15
  0.612500012       1.12043426E-14
  0.613749981       1.14282346E-14
  0.615000010       1.04593712E-14
  0.616249979       8.26019415E-15
  0.617500007       4.92702845E-15
  0.618749976       6.92614447E-16
  0.620000005      -4.08680522E-15
  0.621249974      -8.95965194E-15
  0.622500002      -1.34204569E-14
  0.623749971      -1.69609132E-14
  0.625000000      -1.91254788E-14
  0.626250029      -1.95655903E-14
  0.627499998      -1.80862558E-14
  0.628750026      -1.46792453E-14
  0.629999995      -9.53821948E-15
  0.631250024      -3.05284333E-15
  0.632499993       4.21885596E-15
  0.633750021       1.15982578E-14
  0.634999990       1.83500557E-14
  0.636250019       2.37562621E-14
  0.637499988       2.71927985E-14
  0.638750017       2.82004576E-14
  0.639999986       2.65421789E-14
  0.641250014       2.22396852E-14
  0.642499983       1.55844389E-14
  0.643750012       7.12046558E-15
  0.644999981      -2.40041874E-15
  0.646250010      -1.20873838E-14
  0.647499979      -2.09969778E-14
  0.648750007      -2.82285453E-14
  0.649999976      -3.30187266E-14
  0.651250005      -3.48248347E-14
  0.652499974      -3.33877247E-14
  0.653750002      -2.87667161E-14
  0.654999971      -2.13419201E-14
  0.656250000      -1.17827814E-14
  0.657500029      -9.85296359E-16
  0.658749998       1.00161028E-14
  0.660000026       2.01530585E-14
  0.661249995       2.84332596E-14
  0.662500024       3.40440499E-14
  0.663749993       3.64383172E-14
  0.665000021       3.53930616E-14
  0.666249990       3.10338777E-14
  0.667500019       2.38222816E-14
  0.668749988       1.45068927E-14
  0.670000017       4.04355826E-15
  0.671249986      -6.50698249E-15
  0.672500014      -1.60926587E-14
  0.673749983      -2.37822796E-14
  0.675000012      -2.88638742E-14
  0.676249981      -3.09181425E-14
  0.677500010      -2.98587754E-14
  0.678749979      -2.59352154E-14
  0.680000007      -1.96976851E-14
  0.681249976      -1.19287023E-14
  0.682500005      -3.54917626E-15
  0.683749974       4.48985611E-15
  0.685000002       1.13171462E-14
  0.686249971       1.62399188E-14
  0.687500000       1.88198303E-14
  0.688750029       1.89174475E-14
  0.689999998       1.67002761E-14
  0.691250026       1.26137936E-14
  0.692499995       7.31937009E-15
  0.693750024       1.60696063E-15
  0.694999993      -3.70654587E-15
  0.696250021      -7.88075812E-15
  0.697499990      -1.03443035E-14
  0.698750019      -1.07651958E-14
  0.699999988      -9.09061763E-15
  0.701250017      -5.55153906E-15
  0.702499986      -6.31986264E-16
  0.703750014       4.99283783E-15
  0.704999983       1.05415758E-14
  0.706250012       1.52240908E-14
  0.707499981       1.83390324E-14
  0.708750010       1.93596394E-14
  0.709999979       1.79974901E-14
  0.711250007       1.42369281E-14
  0.712499976       8.33674814E-15
  0.713750005       7.99939345E-16
  0.714999974      -7.68370776E-15
  0.716250002      -1.63140850E-14
  0.717499971      -2.42662098E-14
  0.718750000      -3.07738623E-14
  0.720000029      -3.52015407E-14
  0.721249998      -3.70970446E-14
  0.722500026      -3.62202367E-14
  0.723749995      -3.25472105E-14
  0.725000024      -2.62527189E-14
  0.726249993      -1.76767204E-14
  0.727500021      -7.28276895E-15
  0.728749990       4.38358863E-15
  0.730000019       1.67292683E-14
  0.731249988       2.91362190E-14
  0.732500017       4.09707058E-14
  0.733749986       5.15816265E-14
  0.735000014       6.02936212E-14
  0.736249983       6.64032902E-14
  0.737500012       6.91877314E-14
  0.738749981       6.79338178E-14
  0.740000010       6.19937112E-14
  0.741249979       5.08675845E-14
  0.742500007       3.43088120E-14
  0.743749976       1.24407973E-14
  0.745000005      -1.41309473E-14
  0.746249974      -4.42315692E-14
  0.747500002      -7.60760202E-14
  0.748749971      -1.07294239E-13
  0.750000000      -1.35036730E-13
  0.751250029      -1.56166543E-13
  0.752499998      -1.67532709E-13
  0.753750026      -1.66307899E-13
  0.754999995      -1.50361088E-13
  0.756250024      -1.18625745E-13
  0.757499993      -7.14175220E-14
  0.758750021      -1.06538254E-14
  0.759999990       6.00684392E-14
  0.761250019       1.35569941E-13
  0.762499988       2.09377993E-13
  0.763750017       2.74204243E-13
  0.764999986       3.22584868E-13
  0.766250014       3.47633950E-13
  0.767499983       3.43841546E-13
  0.768750012       3.07832996E-13
  0.769999981       2.38999982E-13
  0.771250010       1.39917713E-13
  0.772499979       1.64757768E-14
  0.773750007      -1.22325774E-13
  0.774999976      -2.64931821E-13
  0.776250005      -3.98118577E-13
  0.777499974      -5.08152006E-13
  0.778750002      -5.82123542E-13
  0.779999971      -6.09338426E-13
  0.781250000      -5.82615228E-13
  0.782500029      -4.99350778E-13
  0.783749998      -3.62216035E-13
  0.785000026      -1.79376045E-13
  0.786249995       3.58311877E-14
  0.787500024       2.65770370E-13
  0.788749993       4.89894963E-13
  0.790000021       6.86542023E-13
  0.791249990       8.34982691E-13
  0.792500019       9.17537856E-13
  0.793749988       9.21546476E-13
  0.795000017       8.40974480E-13
  0.796249986       6.77475599E-13
  0.797500014       4.40757809E-13
  0.798749983       1.48173018E-13
  0.800000012      -1.76478691E-13
  0.801249981      -5.04858200E-13
  0.802500010      -8.06560439E-13
  0.803749979      -1.05193599E-12
  0.805000007      -1.21499794E-12
  0.806249976      -1.27612732E-12
  0.807500005      -1.22429757E-12
  0.808749974      -1.05857152E-12
  0.810000002      -7.88686770E-13
  0.811249971      -4.34629112E-13
  0.812500000      -2.51905616E-14
  0.813750029       4.04389955E-13
  0.814999998       8.15508360E-13
  0.816250026       1.16972523E-12
  0.817499995       1.43241473E-12
  0.818750024       1.57617972E-12
  0.819999993       1.58369064E-12
  0.821250021       1.44965333E-12
  0.822499990       1.18168778E-12
  0.823750019       7.99999986E-13
  0.824999988       3.35846097E-13
  0.826250017      -1.71093351E-13
  0.827499986      -6.76201987E-13
  0.828750014      -1.13396272E-12
  0.829999983      -1.50216244E-12
  0.831250012      -1.74586745E-12
  0.832499981      -1.84078490E-12
  0.833750010      -1.77568214E-12
  0.834999979      -1.55361845E-12
  0.836250007      -1.19186139E-12
  0.837499976      -7.20481400E-13
  0.838750005      -1.79745785E-13
  0.839999974       3.83449511E-13
  0.841250002       9.19780745E-13
  0.842499971       1.38193873E-12
  0.843750000       1.72889968E-12
  0.845000029       1.92962768E-12
  0.846249998       1.96586779E-12
  0.847500026       1.83377662E-12
  0.848749995       1.54424824E-12
  0.850000024       1.12191419E-12
  0.851249993       6.02923635E-13
  0.852500021       3.17164914E-14
  0.853749990      -5.42905564E-13
  0.855000019      -1.07204859E-12
  0.856249988      -1.51095152E-12
  0.857500017      -1.82279235E-12
  0.858749986      -1.98175200E-12
  0.860000014      -1.97508459E-12
  0.861249983      -1.80403771E-12
  0.862500012      -1.48357238E-12
  0.863749981      -1.04093860E-12
  0.865000010      -5.13256917E-13
  0.866249979       5.56640813E-14
  0.867500007       6.18991186E-13
  0.868749976       1.13069894E-12
  0.870000005       1.54925974E-12