 -0.200000003       0.00000000    
 -0.198750004       0.00000000    
 -0.197500005       0.00000000    
 -0.196250007       0.00000000    
 -0.194999993       0.00000000    
 -0.193749994       0.00000000    
 -0.192499995       0.00000000    
 -0.191249996       0.00000000    
 -0.189999998       0.00000000    
 -0.188749999       0.00000000    
 -0.187500000       0.00000000    
 -0.186250001       0.00000000    
 -0.185000002       0.00000000    
 -0.183750004       0.00000000    
 -0.182500005       0.00000000    
 -0.181250006       0.00000000    
 -0.180000007       0.00000000    
 -0.178749993       0.00000000    
 -0.177499995       0.00000000    
 -0.176249996       0.00000000    
 -0.174999997       0.00000000    
 -0.173749998       0.00000000    
 -0.172499999       0.00000000    
 -0.171250001       0.00000000    
 -0.170000002       0.00000000    
 -0.168750003       0.00000000    
 -0.167500004       0.00000000    
 -0.166250005       0.00000000    
 -0.165000007       0.00000000    
 -0.163749993       0.00000000    
 -0.162499994       0.00000000    
 -0.161249995       0.00000000    
 -0.159999996       0.00000000    
 -0.158749998       0.00000000    
 -0.157499999       0.00000000    
 -0.156250000       0.00000000    
 -0.155000001       0.00000000    
 -0.153750002       0.00000000    
 -0.152500004       0.00000000    
 -0.151250005       0.00000000    
 -0.150000006       0.00000000    
 -0.148750007       0.00000000    
 -0.147499993       0.00000000    
 -0.146249995       0.00000000    
 -0.144999996       0.00000000    
 -0.143749997       0.00000000    
 -0.142499998       0.00000000    
 -0.141249999       0.00000000    
 -0.140000001       0.00000000    
 -0.138750002       0.00000000    
 -0.137500003       0.00000000    
 -0.136250004       0.00000000    
 -0.135000005       0.00000000    
 -0.133750007       0.00000000    
 -0.132499993       0.00000000    
 -0.131249994       0.00000000    
 -0.129999995       0.00000000    
 -0.128749996       0.00000000    
 -0.127499998       0.00000000    
 -0.126249999       0.00000000    
 -0.125000000       0.00000000    
 -0.123750001       0.00000000    
 -0.122500002       0.00000000    
 -0.121250004       0.00000000    
 -0.119999997       0.00000000    
 -0.118749999       0.00000000    
 -0.117500000       0.00000000    
 -0.116250001       0.00000000    
 -0.115000002       0.00000000    
 -0.113750003       0.00000000    
 -0.112499997       0.00000000    
 -0.111249998       0.00000000    
 -0.109999999       2.10194770E-44
 -0.108750001       9.10844002E-44
 -0.107500002       2.45227231E-43
 -0.106250003       5.52111595E-43
 -0.104999997       1.04116476E-42
 -0.103749998       1.71518932E-42
 -0.102499999       2.37660220E-42
 -0.101250000       1.61289453E-42
 -0.100000001      -1.26537251E-42
  -9.87500027E-02  -5.26467833E-42
  -9.74999964E-02  -1.12033812E-41
  -9.62499976E-02  -2.01829018E-41
  -9.49999988E-02  -2.96066340E-41
  -9.37500000E-02  -3.50618889E-41
  -9.25000012E-02  -2.99331365E-41
  -9.12500024E-02  -2.73813720E-42
  -9.00000036E-02   5.88909693E-41
  -8.87499973E-02   1.65801634E-40
  -8.74999985E-02   3.19234007E-40
  -8.62499997E-02   4.99242005E-40
  -8.50000009E-02   6.55109835E-40
  -8.37500021E-02   6.88969409E-40
  -8.25000033E-02   4.53755857E-40
  -8.12499970E-02  -2.30359455E-40
  -7.99999982E-02  -1.53194713E-39
  -7.87499994E-02  -3.52639421E-39
  -7.75000006E-02  -6.07274550E-39
  -7.62500018E-02  -8.65880258E-39
  -7.50000030E-02  -1.02627582E-38
  -7.37499967E-02  -9.29095774E-39
  -7.24999979E-02  -3.69101875E-39
  -7.12499991E-02   8.64800557E-39
  -7.00000003E-02   2.91123063E-38
  -6.87500015E-02   5.71694405E-38
  -6.75000027E-02   8.88860039E-38
  -6.62499964E-02   1.15478764E-37
  -6.49999976E-02   1.22492084E-37
  -6.37499988E-02   9.04289232E-38
  -6.25000000E-02  -2.20876868E-39
  -6.12500012E-02  -1.72640621E-37
  -5.99999987E-02  -4.24031929E-37
  -5.87499999E-02  -7.33026805E-37
  -5.75000010E-02  -1.03701961E-36
  -5.62499985E-02  -1.22554954E-36
  -5.49999997E-02  -1.14202829E-36
  -5.37500009E-02  -6.02979447E-37
  -5.24999984E-02   5.58909170E-37
  -5.12499996E-02   2.42535447E-36
  -5.00000007E-02   4.90141540E-36
  -4.87499982E-02   7.61838219E-36
  -4.74999994E-02   9.85923358E-36
  -4.62500006E-02   1.05475794E-35
  -4.50000018E-02   8.34784732E-36
  -4.37499993E-02   1.91988885E-36
  -4.25000004E-02  -9.65086100E-36
  -4.12500016E-02  -2.62701578E-35
  -3.99999991E-02  -4.61858102E-35
  -3.87500003E-02  -6.54378133E-35
  -3.75000015E-02  -7.76473999E-35
  -3.62499990E-02  -7.44289388E-35
  -3.50000001E-02  -4.66900014E-35
  -3.37500013E-02   1.30294064E-35
  -3.24999988E-02   1.07259130E-34
  -3.12500000E-02   2.29769955E-34
  -2.99999993E-02   3.62062041E-34
  -2.87500005E-02   4.71426821E-34
  -2.74999999E-02   5.12100762E-34
  -2.62499992E-02   4.30978014E-34
  -2.50000004E-02   1.78825235E-34
  -2.37499997E-02  -2.73163742E-34
  -2.25000009E-02  -9.13313744E-34
  -2.12500002E-02  -1.66981489E-33
  -1.99999996E-02  -2.39740934E-33
  -1.87500007E-02  -2.87775141E-33
  -1.75000001E-02  -2.84077661E-33
  -1.62499994E-02  -2.01227294E-33
  -1.49999997E-02  -1.88079670E-34
  -1.37499999E-02   2.67204762E-33
  -1.25000002E-02   6.34706926E-33
  -1.12500004E-02   1.02792470E-32
  -9.99999978E-03   1.35529180E-32
  -8.75000004E-03   1.49607282E-32
  -7.49999983E-03   1.31828194E-32
  -6.25000009E-03   7.08569995E-33
  -4.99999989E-03  -3.88226736E-33
  -3.74999992E-03  -1.92595345E-32
  -2.49999994E-03  -3.72039466E-32
  -1.24999997E-03  -5.43188828E-32
   0.00000000      -6.58109857E-32
   1.24999997E-03  -6.60921229E-32
   2.49999994E-03  -4.98703184E-32
   3.74999992E-03  -1.36636025E-32
   4.99999989E-03   4.24724006E-32
   6.25000009E-03   1.13363453E-31
   7.49999983E-03   1.87763746E-31
   8.75000004E-03   2.48558939E-31
   9.99999978E-03   2.74578459E-31
   1.12500004E-02   2.44243511E-31
   1.25000002E-02   1.40892919E-31
   1.37499999E-02  -4.08781158E-32
   1.49999997E-02  -2.89076865E-31
   1.62499994E-02  -5.70037460E-31
   1.75000001E-02  -8.27890139E-31
   1.87500007E-02  -9.89463718E-31
   1.99999996E-02  -9.75599468E-31
   2.12500002E-02  -7.18604100E-31
   2.25000009E-02  -1.83881559E-31
   2.37499997E-02   6.08077021E-31
   2.50000004E-02   1.56478319E-30
   2.62499992E-02   2.51622578E-30
   2.74999999E-02   3.22662629E-30
   2.87500005E-02   3.42730330E-30
   2.99999993E-02   2.87062397E-30
   3.12500000E-02   1.39969216E-30
   3.24999988E-02  -9.77600065E-31
   3.37500013E-02  -4.02697845E-30
   3.50000001E-02  -7.25876376E-30
   3.62499990E-02  -9.95101822E-30
   3.75000015E-02  -1.12388545E-29
   3.87500003E-02  -1.02727320E-29
   3.99999991E-02  -6.43253755E-30
   4.12500016E-02   4.34389502E-31
   4.25000004E-02   9.80074603E-30
   4.37499993E-02   2.03335952E-29
   4.50000018E-02   2.99180066E-29
   4.62500006E-02   3.58787779E-29
   4.74999994E-02   3.54185679E-29
   4.87499982E-02   2.62450416E-29
   5.00000007E-02   7.30438874E-30
   5.12499996E-02  -2.05161508E-29
   5.24999984E-02  -5.38951453E-29
   5.37500009E-02  -8.69841625E-29
   5.49999997E-02  -1.11877933E-28
   5.62499985E-02  -1.19733343E-28
   5.75000010E-02  -1.02500531E-28
   5.87499999E-02  -5.50732186E-29
   5.99999987E-02   2.24973519E-29
   6.12500012E-02   1.23215100E-28
   6.25000000E-02   2.32334198E-28
   6.37499988E-02   3.28051279E-28
   6.49999976E-02   3.84036329E-28
   6.62499964E-02   3.73836845E-28
   6.75000027E-02   2.76775705E-28
   6.87500015E-02   8.45028004E-29
   7.00000003E-02  -1.93056181E-28
   7.12499991E-02  -5.23875863E-28
   7.24999979E-02  -8.53661033E-28
   7.37499967E-02  -1.11052741E-27
   7.50000030E-02  -1.21502953E-27
   7.62500018E-02  -1.09500413E-27
   7.75000006E-02  -7.03477834E-28
   7.87499994E-02  -3.66810661E-29
   7.99999982E-02   8.51710451E-28
   8.12499970E-02   1.84433176E-27
   8.25000033E-02   2.76563694E-27
   8.37500021E-02   3.40149157E-27
   8.50000009E-02   3.53283345E-27
   8.62499997E-02   2.98036176E-27
   8.74999985E-02   1.65396418E-27
   8.87499973E-02  -4.02239063E-28
   9.00000036E-02  -2.98004918E-27
   9.12500024E-02  -5.70322129E-27
   9.25000012E-02  -8.05760555E-27
   9.37500000E-02  -9.45874039E-27
   9.49999988E-02  -9.35326260E-27
   9.62499976E-02  -7.34235523E-27
   9.74999964E-02  -3.30750580E-27
   9.87500027E-02   2.48711974E-27
  0.100000001       9.34361600E-27
  0.101250000       1.61554630E-26
  0.102499999       2.15246198E-26
  0.103749998       2.39714399E-26
  0.104999997       2.22190794E-26
  0.106250003       1.55134659E-26
  0.107500002       3.92177423E-27
  0.108750001      -1.14587593E-26
  0.109999999      -2.84498063E-26
  0.111249998      -4.39525594E-26
  0.112499997      -5.43444737E-26
  0.113750003      -5.60940994E-26
  0.115000002      -4.65256449E-26
  0.116250001      -2.46150009E-26
  0.117500000       8.34011328E-27
  0.118749999       4.83503018E-26
  0.119999997       8.88251031E-26
  0.121250004       1.21232933E-25
  0.122500002       1.36351427E-25
  0.123750001       1.26013245E-25
  0.125000000       8.51235089E-26
  0.126249999       1.36074115E-26
  0.127499998      -8.21340034E-26
  0.128749996      -1.88698265E-25
  0.129999995      -2.86455782E-25
  0.131249994      -3.51831372E-25
  0.132499993      -3.61051110E-25
  0.133750007      -2.95003805E-25
  0.135000005      -1.44543538E-25
  0.136250004       8.47157480E-26
  0.137500003       3.69223561E-25
  0.138750002       6.67026762E-25
  0.140000001       9.20867706E-25
  0.141249999       1.06522748E-24
  0.142499998       1.03701880E-24
  0.143749997       7.88834577E-25
  0.144999996       3.02858123E-25
  0.146249995      -3.97100130E-25
  0.147499993      -1.23829508E-24
  0.148750007      -2.09917603E-24
  0.150000006      -2.81895047E-24
  0.151250005      -3.21730156E-24
  0.152500004      -3.12323325E-24
  0.153750002      -2.41001365E-24
  0.155000001      -1.03124522E-24
  0.156250000       9.48404572E-25
  0.157499999       3.33494340E-24
  0.158749998       5.80588807E-24
  0.159999996       7.93495069E-24
  0.161249995       9.24213896E-24
  0.162499994       9.26654158E-24
  0.163749993       7.65427082E-24
  0.165000007       4.24943119E-24
  0.166250005      -8.27494283E-25
  0.167500004      -7.13093734E-24
  0.168750003      -1.38870522E-23
  0.170000002      -2.00474926E-23
  0.171250001      -2.44041868E-23
  0.172499999      -2.57592841E-23
  0.173749998      -2.31334581E-23
  0.174999997      -1.59852360E-23
  0.176249996      -4.40601338E-24
  0.177499995       1.07482030E-23
  0.178749993       2.78248659E-23
  0.180000007       4.44701119E-23
  0.181250006       5.78626382E-23
  0.182500005       6.50766449E-23
  0.183750004       6.35403604E-23
  0.185000002       5.15338501E-23
  0.186250001       2.86516521E-23
  0.187500000      -3.85327629E-24
  0.188749999      -4.29247018E-23
  0.189999998      -8.38207752E-23
  0.191249996      -1.20526726E-22
  0.192499995      -1.46453188E-22
  0.193749994      -1.55362545E-22
  0.194999993      -1.42418146E-22
  0.196250007      -1.05211938E-22
  0.197500005      -4.46036944E-23
  0.198750004       3.47950484E-23
  0.200000003       1.24632109E-22
  0.201250002       2.13406742E-22
  0.202500001       2.87651957E-22
  0.203749999       3.33625862E-22
  0.204999998       3.39337543E-22
  0.206249997       2.96653302E-22
  0.207499996       2.03175115E-22
  0.208749995       6.35690876E-23
  0.209999993      -1.09944680E-22
  0.211250007      -2.98146912E-22
  0.212500006      -4.76497988E-22
  0.213750005      -6.17863528E-22
  0.215000004      -6.96041082E-22
  0.216250002      -6.89687887E-22
  0.217500001      -5.86132336E-22
  0.218750000      -3.84497495E-22
  0.219999999      -9.75856218E-23
  0.221249998       2.47921741E-22
  0.222499996       6.13208516E-22
  0.223749995       9.51028089E-22
  0.224999994       1.21110248E-21
  0.226249993       1.34667659E-21
  0.227500007       1.32145536E-21
  0.228750005       1.11600326E-21
  0.230000004       7.32647763E-22
  0.231250003       1.98023222E-22
  0.232500002      -4.37383411E-22
  0.233750001      -1.10298365E-21
  0.234999999      -1.71501622E-21
  0.236249998      -2.18608771E-21
  0.237499997      -2.43634074E-21
  0.238749996      -2.40493756E-21
  0.239999995      -2.06036433E-21
  0.241249993      -1.40805477E-21
  0.242500007      -4.94028017E-22
  0.243750006       5.96372887E-22
  0.245000005       1.74501222E-21
  0.246250004       2.81248113E-21
  0.247500002       3.65364626E-21
  0.248750001       4.13564820E-21
  0.250000000       4.15629339E-21
  0.251249999       3.66051857E-21
  0.252499998       2.65261272E-21
  0.253749996       1.20218262E-21
  0.254999995      -5.57567292E-22
  0.256249994      -2.43984798E-21
  0.257499993      -4.22221177E-21
  0.258749992      -5.67097176E-21
  0.259999990      -6.56971238E-21
  0.261249989      -6.74871418E-21
  0.262499988      -6.11163203E-21
  0.263749987      -4.65570368E-21
  0.264999986      -2.48215536E-21
  0.266250014       2.05670831E-22
  0.267500013       3.11765504E-21
  0.268750012       5.90529571E-21
  0.270000011       8.20100625E-21
  0.271250010       9.66443658E-21
  0.272500008       1.00305254E-20
  0.273750007       9.15304428E-21
  0.275000006       7.03717767E-21
  0.276250005       3.85528487E-21
  0.277500004      -5.85069166E-23
  0.278750002      -4.23690553E-21
  0.280000001      -8.13031058E-21
  0.281250000      -1.11756939E-20
  0.282499999      -1.28760736E-20
  0.283749998      -1.28804995E-20
  0.284999996      -1.10528762E-20
  0.286249995      -7.51781242E-21
  0.287499994      -2.67326841E-21
  0.288749993       2.83682742E-21
  0.289999992       8.19182083E-21
  0.291249990       1.25011491E-20
  0.292499989       1.49379287E-20
  0.293749988       1.48825399E-20
  0.294999987       1.20550596E-20
  0.296249986       6.61354164E-21
  0.297500014      -8.03398817E-22
  0.298750013      -9.10610098E-21
  0.300000012      -1.68632109E-20
  0.301250011      -2.24871505E-20
  0.302500010      -2.44790467E-20
  0.303750008      -2.17037830E-20
  0.305000007      -1.36556226E-20
  0.306250006      -6.69062141E-22
  0.307500005       1.59700126E-20
  0.308750004       3.40500046E-20
  0.310000002       5.06181382E-20
  0.311250001       6.23243692E-20
  0.312500000       6.58996247E-20
  0.313749999       5.87170345E-20
  0.314999998       3.93617998E-20
  0.316249996       8.11997082E-21
  0.317499995      -3.27076746E-20
  0.318749994      -7.87503925E-20
  0.319999993      -1.23829610E-19
  0.321249992      -1.60558251E-19
  0.322499990      -1.81248287E-19
  0.323749989      -1.79044122E-19
  0.324999988      -1.49149582E-19
  0.326249987      -8.99777537E-20
  0.327499986      -4.03383471E-21
  0.328750014       1.01652193E-19
  0.330000013       2.15690705E-19
  0.331250012       3.23178948E-19
  0.332500011       4.07224893E-19
  0.333750010       4.51042976E-19
  0.335000008       4.40413344E-19
  0.336250007       3.66207514E-19
  0.337500006       2.26623448E-19
  0.338750005       2.87572700E-20
  0.340000004      -2.10826612E-19
  0.341250002      -4.66774608E-19
  0.342500001      -7.06980051E-19
  0.343750000      -8.95907327E-19
  0.344999999      -9.98940014E-19
  0.346249998      -9.87304685E-19
  0.347499996      -8.42971594E-19
  0.348749995      -5.62847241E-19
  0.349999994      -1.61571108E-19
  0.351249993       3.27676898E-19
  0.352499992       8.54764604E-19
  0.353749990       1.35672355E-18
  0.354999989       1.76419820E-18
  0.356249988       2.00968886E-18
  0.357499987       2.03673043E-18
  0.358749986       1.80890876E-18
  0.360000014       1.31748861E-18
  0.361250013       5.86456320E-19
  0.362500012      -3.26036108E-19
  0.363750011      -1.33048486E-18
  0.365000010      -2.31328937E-18
  0.366250008      -3.14807095E-18
  0.367500007      -3.71009489E-18
  0.368750006      -3.89232112E-18
  0.370000005      -3.62121226E-18
  0.371250004      -2.87024807E-18
  0.372500002      -1.66914491E-18
  0.373750001      -1.07103391E-19
  0.375000000       1.67102075E-18
  0.376249999       3.47595231E-18
  0.377499998       5.09206719E-18
  0.378749996       6.30080182E-18
  0.379999995       6.90707640E-18
  0.381249994       6.76578485E-18
  0.382499993       5.80509274E-18
  0.383749992       4.04332956E-18
  0.384999990       1.59674892E-18
  0.386249989      -1.32374055E-18
  0.387499988      -4.42759962E-18
  0.388749987      -7.37080626E-18
  0.389999986      -9.79108214E-18
  0.391250014      -1.13488642E-17
  0.392500013      -1.17696800E-17
  0.393750012      -1.08830135E-17
  0.395000011      -8.65272445E-18
  0.396250010      -5.19463055E-18
  0.397500008      -7.77991128E-19
  0.398750007       4.19075051E-18
  0.400000006       9.20167790E-18
  0.401250005       1.36902048E-17
  0.402500004       1.70966404E-17
  0.403750002       1.89305825E-17
  0.405000001       1.88331340E-17
  0.406250000       1.66296142E-17
  0.407499999       1.23659233E-17
  0.408749998       6.32303478E-18
  0.409999996      -9.93850682E-19
  0.411249995      -8.89235289E-18
  0.412499994      -1.65541174E-17
  0.413749993      -2.31152247E-17
  0.414999992      -2.77583219E-17
  0.416249990      -2.98070596E-17
  0.417499989      -2.88124676E-17
  0.418749988      -2.46209995E-17
  0.419999987      -1.74152770E-17
  0.421249986      -7.72090218E-18
  0.422500014       3.62396140E-18
  0.423750013       1.55356579E-17
  0.425000012       2.67840751E-17
  0.426250011       3.61150596E-17
  0.427500010       4.23844434E-17
  0.428750008       4.46897792E-17
  0.430000007       4.24852006E-17
  0.431250006       3.56656193E-17
  0.432500005       2.46089756E-17
  0.433750004       1.01691103E-17
  0.435000002      -6.38326180E-18
  0.436250001      -2.34684060E-17
  0.437500000      -3.93456201E-17
  0.438749999      -5.22878798E-17
  0.439999998      -6.07657334E-17
  0.441249996      -6.36209822E-17
  0.442499995      -6.02107481E-17
  0.443749994      -5.05045612E-17
  0.444999993      -3.51214039E-17
  0.446249992      -1.52994946E-17
  0.447499990       7.20135500E-18
  0.448749989       3.02575323E-17
  0.449999988       5.15853256E-17
  0.451249987       6.89705511E-17
  0.452499986       8.05004165E-17
  0.453750014       8.47726058E-17
  0.455000013       8.10582009E-17
  0.456250012       6.93993218E-17
  0.457500011       5.06288897E-17
  0.458750010       2.63082130E-17
  0.460000008      -1.41282325E-18
  0.461250007      -2.99995677E-17
  0.462500006      -5.67795235E-17
  0.463750005      -7.92063619E-17
  0.465000004      -9.51128069E-17
  0.466250002      -1.02925151E-16
  0.467500001      -1.01816457E-16
  0.468750000      -9.17824586E-17
  0.469999999      -7.36330373E-17
  0.471249998      -4.89019682E-17
  0.472499996      -1.96868539E-17
  0.473749995       1.15610286E-17
  0.474999994       4.22720395E-17
  0.476249993       6.99918677E-17
  0.477499992       9.25883046E-17
  0.478749990       1.08410655E-16
  0.479999989       1.16388666E-16
  0.481249988       1.16066622E-16
  0.482499987       1.07577188E-16
  0.483749986       9.15674380E-17
  0.485000014       6.90948796E-17
  0.486250013       4.15135016E-17
  0.487500012       1.03686354E-17
  0.488750011      -2.26852744E-17
  0.490000010      -5.59370632E-17
  0.491250008      -8.76428829E-17
  0.492500007      -1.16031721E-16
  0.493750006      -1.39308756E-16
  0.495000005      -1.55676000E-16
  0.496250004      -1.63389175E-16
  0.497500002      -1.60864183E-16
  0.498750001      -1.46837410E-16
  0.500000000      -1.20571990E-16
  0.501250029      -8.20890334E-17
  0.502499998      -3.23909767E-17
  0.503750026       2.63642314E-17
  0.504999995       9.07820531E-17
  0.506250024       1.56283362E-16
  0.507499993       2.17317764E-16
  0.508750021       2.67748253E-16
  0.509999990       3.01393831E-16
  0.511250019       3.12690868E-16
  0.512499988       2.97410394E-16
  0.513750017       2.53348640E-16
  0.514999986       1.80898021E-16
  0.516250014       8.34065402E-17
  0.517499983      -3.27528483E-17
  0.518750012      -1.58455089E-16
  0.519999981      -2.82453645E-16
  0.521250010      -3.92340420E-16
  0.522499979      -4.75761466E-16
  0.523750007      -5.21773460E-16
  0.524999976      -5.22194330E-16
  0.526250005      -4.72786421E-16
  0.527499974      -3.74112536E-16
  0.528750002      -2.31929876E-16
  0.529999971      -5.70294843E-17
  0.531250000       1.35511454E-16
  0.532500029       3.27629062E-16
  0.533749998       5.00017842E-16
  0.535000026       6.34151757E-16
  0.536249995       7.14364983E-16
  0.537500024       7.29751177E-16
  0.538749993       6.75644777E-16
  0.540000021       5.54481373E-16
  0.541249990       3.75895461E-16
  0.542500019       1.55997926E-16
  0.543749988      -8.41282983E-17
  0.545000017      -3.20578730E-16
  0.546249986      -5.29200404E-16
  0.547500014      -6.88300138E-16
  0.548749983      -7.81168565E-16
  0.550000012      -7.98105942E-16
  0.551249981      -7.37682317E-16
  0.552500010      -6.07046914E-16
  0.553749979      -4.21211221E-16
  0.555000007      -2.01356288E-16
  0.556249976       2.76594589E-17
  0.557500005       2.40306318E-16
  0.558749974       4.13538849E-16
  0.560000002       5.29701318E-16
  0.561249971       5.78797571E-16
  0.562500000       5.59805610E-16
  0.563750029       4.80827729E-16
  0.564999998       3.58010360E-16
  0.566250026       2.13329430E-16
  0.567499995       7.14920358E-17
  0.568750024      -4.36616996E-17
  0.569999993      -1.12784660E-16
  0.571250021      -1.24173561E-16
  0.572499990      -7.59757386E-17
  0.573750019       2.29179058E-17
  0.574999988       1.53508509E-16
  0.576250017       2.88874207E-16
  0.577499986       3.97714871E-16
  0.578750014       4.48867799E-16
  0.579999983       4.16242737E-16
  0.581250012       2.83523686E-16
  0.582499981       4.79627609E-17
  0.583750010      -2.77343442E-16
  0.584999979      -6.63154800E-16
  0.586250007      -1.06600293E-15
  0.587499976      -1.43228687E-15
  0.588750005      -1.70422637E-15
  0.589999974      -1.82707908E-15
  0.591250002      -1.75681081E-15
  0.592499971      -1.46727642E-15
  0.593750000      -9.55943491E-16
  0.595000029      -2.47288781E-16
  0.596249998       6.06791745E-16
  0.597500026       1.52990699E-15
  0.598749995       2.42739695E-15
  0.600000024       3.19542396E-15
  0.601249993       3.73210425E-15
  0.602500021       3.94954311E-15
  0.603749990       3.78542709E-15
  0.605000019       3.21277289E-15
  0.606249988       2.24653657E-15
  0.607500017       9.46044005E-16
  0.608749986      -5.87384844E-16
  0.610000014      -2.21773576E-15
  0.611249983      -3.78608904E-15
  0.612500012      -5.12591009E-15
  0.613749981      -6.08039128E-15
  0.615000010      -6.52005178E-15
  0.616249979      -6.35865897E-15
  0.617500007      -5.56559303E-15
  0.618749976      -4.17305435E-15
  0.620000005      -2.27698783E-15
  0.621249974      -3.12313224E-17
  0.622500002       2.36487978E-15
  0.623749971       4.68449073E-15
  0.625000000       6.69514747E-15
  0.626250029       8.18251276E-15
  0.627499998       8.97340775E-15
  0.628750026       8.95567512E-15
  0.629999995       8.09258242E-15
  0.631250024       6.42998253E-15
  0.632499993       4.09514680E-15
  0.633750021       1.28706000E-15
  0.634999990      -1.74112175E-15
  0.636250019      -4.70587153E-15
  0.637499988      -7.32103959E-15
  0.638750017      -9.32673145E-15
  0.639999986      -1.05162893E-14
  0.641250014      -1.07584679E-14
  0.642499983      -1.00123284E-14
  0.643750012      -8.33311014E-15
  0.644999981      -5.86826586E-15
  0.646250010      -2.84389682E-15
  0.647499979       4.57132300E-16
  0.648750007       3.72319939E-15
  0.649999976       6.64515220E-15
  0.651250005       8.94747330E-15
  0.652499974       1.04160692E-14
  0.653750002       1.09197133E-14
  0.654999971       1.04228387E-14
  0.656250000       8.98832231E-15
  0.657500029       6.76998241E-15
  0.658749998       3.99564838E-15
  0.660000026       9.42695790E-16
  0.661249995      -2.09124176E-15
  0.662500024      -4.81915711E-15
  0.663749993      -6.99377444E-15
  0.665000021      -8.43174035E-15
  0.666249990      -9.03035632E-15
  0.667500019      -8.77519611E-15
  0.668749988      -7.73800257E-15
  0.670000017      -6.06537890E-15
  0.671249986      -3.95982397E-15
  0.672500014      -1.65550408E-15
  0.673749983       6.08316193E-16
  0.675000012       2.61307653E-15
  0.676249981       4.18304807E-15
  0.677500010       5.20141545E-15
  0.678749979       5.61875875E-15
  0.680000007       5.45335354E-15
  0.681249976       4.78372106E-15
  0.682500005       3.73479654E-15
  0.683749974       2.45978834E-15
  0.685000002       1.12023157E-15
  0.686249971      -1.33178156E-16
  0.687500000      -1.17664618E-15
  0.688750029      -1.92446923E-15
  0.689999998      -2.33435631E-15
  0.691250026      -2.40675328E-15
  0.692499995      -2.17888574E-15
  0.693750024      -1.71493393E-15
  0.694999993      -1.09419896E-15
  0.696250021      -3.99270923E-16
  0.697499990       2.93966543E-16
  0.698750019       9.23132505E-16
  0.699999988       1.44225242E-15
  0.701250017       1.82085296E-15
  0.702499986       2.04007907E-15
  0.703750014       2.08724461E-15
  0.704999983       1.95056484E-15
  0.706250012       1.61580143E-15
  0.707499981       1.06620262E-15
  0.708750010       2.86464637E-16
  0.709999979      -7.29432110E-16
  0.711250007      -1.96760015E-15
  0.712499976      -3.38277854E-15
  0.713750005      -4.88858035E-15
  0.714999974      -6.35222533E-15
  0.716250002      -7.59628888E-15
  0.717499971      -8.40925077E-15
  0.718750000      -8.56543772E-15
  0.720000029      -7.85346502E-15
  0.721249998      -6.11066466E-15
  0.722500026      -3.25950242E-15
  0.723749995       6.59145687E-16
  0.725000024       5.46151513E-15
  0.726249993       1.08106951E-14
  0.727500021       1.62249720E-14
  0.728749990       2.11072919E-14
  0.730000019       2.47958426E-14
  0.731249988       2.66328707E-14
  0.732500017       2.60459243E-14
  0.733749986       2.26331049E-14
  0.735000014       1.62420939E-14
  0.736249983       7.03195741E-15
  0.737500012      -4.49268689E-15
  0.738749981      -1.74835715E-14
  0.740000010      -3.07918465E-14
  0.741249979      -4.30530313E-14
  0.742500007      -5.28095159E-14
  0.743749976      -5.86611922E-14
  0.745000005      -5.94301558E-14
  0.746249974      -5.43220559E-14
  0.747500002      -4.30649440E-14
  0.748749971      -2.60068625E-14
  0.750000000      -4.15608616E-15
  0.751250029       2.08472325E-14
  0.752499998       4.68325736E-14
  0.753750026       7.12704364E-14
  0.754999995       9.15019200E-14
  0.756250024       1.05007169E-13
  0.757499993       1.09686979E-13
  0.758750021       1.04127929E-13
  0.759999990       8.78204708E-14
  0.761250019       6.13017192E-14
  0.762499988       2.62005959E-14
  0.763750017      -1.48283688E-14
  0.764999986      -5.82852316E-14
  0.766250014      -1.00109225E-13
  0.767499983      -1.36046190E-13
  0.768750012      -1.62066554E-13
  0.769999981      -1.74793583E-13
  0.771250010      -1.71897761E-13
  0.772499979      -1.52413333E-13
  0.773750007      -1.16938333E-13
  0.774999976      -6.76891201E-14
  0.776250005      -8.39383477E-15
  0.777499974       5.59748814E-14
  0.778750002       1.19610607E-13
  0.779999971       1.76394056E-13
  0.781250000       2.20477486E-13
  0.782500029       2.46876629E-13
  0.783749998       2.52010489E-13
  0.785000026       2.34131209E-13
  0.786249995       1.93595181E-13
  0.787500024       1.32939815E-13
  0.788749993       5.67489984E-14
  0.790000021      -2.86891211E-14
  0.791249990      -1.15907026E-13
  0.792500019      -1.96920984E-13
  0.793749988      -2.63972275E-13
  0.795000017      -3.10276137E-13
  0.796249986      -3.30705054E-13
  0.797500014      -3.22336586E-13
  0.798749983      -2.84808012E-13
  0.800000012      -2.20436963E-13
  0.801249981      -1.34089571E-13
  0.802500010      -3.28022149E-14
  0.803749979       7.48126943E-14
  0.805000007       1.79324491E-13
  0.806249976       2.71336230E-13
  0.807500005       3.42350958E-13
  0.808749974       3.85569669E-13
  0.810000002       3.96544343E-13
  0.811249971       3.73622086E-13
  0.812500000       3.18136170E-13
  0.813750029       2.34324062E-13
  0.814999998       1.28978290E-13
  0.816250026       1.08617788E-14
  0.817499995      -1.10058738E-13
  0.818750024      -2.23489955E-13
  0.819999993      -3.19718861E-13
  0.821250021      -3.90466007E-13
  0.822499990      -4.29607657E-13
  0.823750019      -4.33702580E-13
  0.824999988      -4.02278064E-13
  0.826250017      -3.37853145E-13
  0.827499986      -2.45701083E-13
  0.828750014      -1.33377020E-13
  0.829999983      -1.00575455E-14
  0.831250012       1.14246056E-13
  0.832499981       2.29529232E-13
  0.833750010       3.26616691E-13
  0.834999979       3.97896722E-13
  0.836250007       4.37908309E-13
  0.837499976       4.43737549E-13
  0.838750005       4.15197797E-13
  0.839999974       3.54787570E-13
  0.841250002       2.67438578E-13
  0.842499971       1.60082749E-13
  0.843750000       4.10798680E-14
  0.845000029      -8.04445147E-14
  0.846249998      -1.95297432E-13
  0.847500026      -2.94900497E-13
  0.848749995      -3.71907529E-13
  0.850000024      -4.20717606E-13
  0.851249993      -4.37852906E-13
  0.852500021      -4.22181306E-13
  0.853749990      -3.74974737E-13
  0.855000019      -2.99803964E-13
  0.856249988      -2.02279572E-13
  0.857500017      -8.96580512E-14
  0.858749986       2.96634563E-14
  0.860000014       1.46733442E-13
  0.861249983       2.52678385E-13
  0.862500012       3.39344113E-13
  0.863749981       3.99905667E-13
  0.865000010       4.29405372E-13
  0.866249979       4.25179260E-13
  0.867500007       3.87135473E-13
  0.868749976       3.17856201E-13
  0.870000005       2.22500878E-13