 -0.200000003       0.00000000    
 -0.198750004       0.00000000    
 -0.197500005       0.00000000    
 -0.196250007       0.00000000    
 -0.194999993       0.00000000    
 -0.193749994       0.00000000    
 -0.192499995       0.00000000    
 -0.191249996       0.00000000    
 -0.189999998       0.00000000    
 -0.188749999      -6.08067673E-35
 -0.187500000      -9.33091069E-34
 -0.186250001      -7.38571256E-33
 -0.185000002      -4.02387233E-32
 -0.183750004      -1.70331682E-31
 -0.182500005      -6.01494300E-31
 -0.181250006      -1.86378485E-30
 -0.180000007      -5.27012975E-30
 -0.178749993      -1.39993079E-29
 -0.177499995      -3.55247679E-29
 -0.176249996      -8.64597619E-29
 -0.174999997      -2.00676724E-28
 -0.173749998      -4.39685858E-28
 -0.172499999      -8.99392721E-28
 -0.171250001      -1.69907523E-27
 -0.170000002      -2.92931961E-27
 -0.168750003      -4.53364487E-27
 -0.167500004      -6.11748882E-27
 -0.166250005      -6.73377832E-27
 -0.165000007      -4.79262621E-27
 -0.163749993       1.63777982E-27
 -0.162499994       1.37994252E-26
 -0.161249995       3.02356395E-26
 -0.159999996       4.39624910E-26
 -0.158749998       3.97827269E-26
 -0.157499999      -6.17097382E-27
 -0.156250000      -1.21521422E-25
 -0.155000001      -3.24001666E-25
 -0.153750002      -5.97385234E-25
 -0.152500004      -8.59809773E-25
 -0.151250005      -9.34899076E-25
 -0.150000006      -5.45410788E-25
 -0.148750007       6.43319766E-25
 -0.147499993       2.90296238E-24
 -0.146249995       6.23215971E-24
 -0.144999996       1.00786226E-23
 -0.143749997       1.30690570E-23
 -0.142499998       1.28861131E-23
 -0.141249999       6.48175294E-24
 -0.140000001      -9.18083737E-24
 -0.138750002      -3.57480239E-23
 -0.137500003      -7.15480180E-23
 -0.136250004      -1.09513685E-22
 -0.135000005      -1.35725109E-22
 -0.133750007      -1.29657507E-22
 -0.132499993      -6.73122830E-23
 -0.131249994       7.19142325E-23
 -0.129999995       2.94657345E-22
 -0.128749996       5.80810390E-22
 -0.127499998       8.71916624E-22
 -0.126249999       1.06587028E-21
 -0.125000000       1.02405081E-21
 -0.123750001       5.96347492E-22
 -0.122500002      -3.33538923E-22
 -0.121250004      -1.78587426E-21
 -0.119999997      -3.61704352E-21
 -0.118749999      -5.46596264E-21
 -0.117500000      -6.74124250E-21
 -0.116250001      -6.67691870E-21
 -0.115000002      -4.47731257E-21
 -0.113750003       4.46353454E-22
 -0.112499997       8.17319149E-21
 -0.111249998       1.79639735E-20
 -0.109999999       2.80399494E-20
 -0.108750001       3.55628533E-20
 -0.107500002       3.69250485E-20
 -0.106250003       2.84179806E-20
 -0.104999997       7.26635517E-21
 -0.103749998      -2.70992366E-20
 -0.102499999      -7.17888082E-20
 -0.101250000      -1.19589107E-19
 -0.100000001      -1.58916505E-19
  -9.87500027E-02  -1.74971318E-19
  -9.74999964E-02  -1.52308844E-19
  -9.62499976E-02  -7.87389671E-20
  -9.49999988E-02   4.99386029E-20
  -9.37500000E-02   2.25292954E-19
  -9.25000012E-02   4.23002252E-19
  -9.12500024E-02   6.02415736E-19
  -9.00000036E-02   7.10201144E-19
  -8.87499973E-02   6.88761450E-19
  -8.74999985E-02   4.89119289E-19
  -8.62499997E-02   8.66926318E-20
  -8.50000009E-02  -5.02951817E-19
  -8.37500021E-02  -1.21235685E-18
  -8.25000033E-02  -1.91887229E-18
  -8.12499970E-02  -2.45369749E-18
  -7.99999982E-02  -2.62546589E-18
  -7.87499994E-02  -2.25776301E-18
  -7.75000006E-02  -1.23631552E-18
  -7.62500018E-02   4.42187853E-19
  -7.50000030E-02   2.63076212E-18
  -7.37499967E-02   5.01476757E-18
  -7.24999979E-02   7.12781120E-18
  -7.12499991E-02   8.40790215E-18
  -7.00000003E-02   8.29361640E-18
  -6.87500015E-02   6.35055384E-18
  -6.75000027E-02   2.40846705E-18
  -6.62499964E-02  -3.31896501E-18
  -6.49999976E-02  -1.01639421E-17
  -6.37499988E-02  -1.70143194E-17
  -6.25000000E-02  -2.24242196E-17
  -6.12500012E-02  -2.48296277E-17
  -5.99999987E-02  -2.28507288E-17
  -5.87499999E-02  -1.56384963E-17
  -5.75000010E-02  -3.20177048E-18
  -5.62499985E-02   1.33613864E-17
  -5.49999997E-02   3.18033542E-17
  -5.37500009E-02   4.88947486E-17
  -5.24999984E-02   6.08427075E-17
  -5.12499996E-02   6.39330609E-17
  -5.00000007E-02   5.53155230E-17
  -4.87499982E-02   3.38004362E-17
  -4.74999994E-02   5.02219142E-19
  -4.62500006E-02  -4.08419170E-17
  -4.50000018E-02  -8.40197855E-17
  -4.37499993E-02  -1.21034589E-16
  -4.25000004E-02  -1.43316479E-16
  -4.12500016E-02  -1.43319775E-16
  -3.99999991E-02  -1.16260010E-16
  -3.87500003E-02  -6.16624567E-17
  -3.75000015E-02   1.56370289E-17
  -3.62499990E-02   1.05359424E-16
  -3.50000001E-02   1.92725830E-16
  -3.37500013E-02   2.60503659E-16
  -3.24999988E-02   2.91959843E-16
  -3.12500000E-02   2.74298438E-16
  -2.99999993E-02   2.01975694E-16
  -2.87500005E-02   7.91897058E-17
  -2.74999999E-02  -7.91246828E-17
  -2.62499992E-02  -2.48289259E-16
  -2.50000004E-02  -3.97042803E-16
  -2.37499997E-02  -4.92637009E-16
  -2.25000009E-02  -5.07193006E-16
  -2.12500002E-02  -4.24257336E-16
  -1.99999996E-02  -2.44250262E-16
  -1.87500007E-02   1.25173205E-17
  -1.75000001E-02   3.06340027E-16
  -1.62499994E-02   5.82689740E-16
  -1.49999997E-02   7.80702062E-16
  -1.37499999E-02   8.44582163E-16
  -1.25000002E-02   7.36157817E-16
  -1.12500004E-02   4.46227650E-16
  -9.99999978E-03   2.16043260E-18
  -8.75000004E-03  -5.30530828E-16
  -7.49999983E-03  -1.05413187E-15
  -6.25000009E-03  -1.45244413E-15
  -4.99999989E-03  -1.61103697E-15
  -3.74999992E-03  -1.44124149E-15
  -2.49999994E-03  -9.03813060E-16
  -1.24999997E-03  -2.74933693E-17
   0.00000000       1.08223123E-15
   1.24999997E-03   2.24783846E-15
   2.49999994E-03   3.23969646E-15
   3.74999992E-03   3.81035315E-15
   4.99999989E-03   3.73939296E-15
   6.25000009E-03   2.88235148E-15
   7.49999983E-03   1.21516617E-15
   8.75000004E-03  -1.13511605E-15
   9.99999978E-03  -3.88181986E-15
   1.12500004E-02  -6.59820285E-15
   1.25000002E-02  -8.76690789E-15
   1.37499999E-02  -9.85599999E-15
   1.49999997E-02  -9.41280525E-15
   1.62499994E-02  -7.16207353E-15
   1.75000001E-02  -3.09167682E-15
   1.87500007E-02   2.49159866E-15
   1.99999996E-02   8.95150348E-15
   2.12500002E-02   1.53670564E-14
   2.25000009E-02   2.06348373E-14
   2.37499997E-02   2.36214873E-14
   2.50000004E-02   2.33493814E-14
   2.62499992E-02   1.91899075E-14
   2.74999999E-02   1.10332233E-14
   2.87500005E-02  -5.97657818E-16
   2.99999993E-02  -1.45167573E-14
   3.12500000E-02  -2.89478456E-14
   3.24999988E-02  -4.17051207E-14
   3.37500013E-02  -5.04702074E-14
   3.50000001E-02  -5.31365486E-14
   3.62499990E-02  -4.81770114E-14
   3.75000015E-02  -3.49800687E-14
   3.87500003E-02  -1.40970084E-14
   3.99999991E-02   1.26523166E-14
   4.12500016E-02   4.22528833E-14
   4.25000004E-02   7.07626638E-14
   4.37499993E-02   9.37631049E-14
   4.50000018E-02   1.06949883E-13
   4.62500006E-02   1.06794531E-13
   4.74999994E-02   9.11871896E-14
   4.87499982E-02   5.99612658E-14
   5.00000007E-02   1.52051189E-14
   5.12499996E-02  -3.87150876E-14
   5.24999984E-02  -9.54641165E-14
   5.37500009E-02  -1.47377472E-13
   5.49999997E-02  -1.86382648E-13
   5.62499985E-02  -2.05104461E-13
   5.75000010E-02  -1.98017899E-13
   5.87499999E-02  -1.62487265E-13
   5.99999987E-02  -9.95275165E-14
   6.12500012E-02  -1.41422120E-14
   6.25000000E-02   8.48628080E-14
   6.37499988E-02   1.85629290E-13
   6.49999976E-02   2.74521969E-13
   6.62499964E-02   3.37812975E-13
   6.75000027E-02   3.63585057E-13
   6.87500015E-02   3.43611424E-13
   7.00000003E-02   2.74944564E-13
   7.12499991E-02   1.60955206E-13
   7.24999979E-02   1.16133367E-14
   7.37499967E-02  -1.57115640E-13
   7.50000030E-02  -3.24775878E-13
   7.62500018E-02  -4.68717621E-13
   7.75000006E-02  -5.66953223E-13
   7.87499994E-02  -6.01236617E-13
   7.99999982E-02  -5.59962992E-13
   8.12499970E-02  -4.40465074E-13
   8.25000033E-02  -2.50325639E-13
   8.37500021E-02  -7.41952666E-15
   8.50000009E-02   2.61451505E-13
   8.62499997E-02   5.23286167E-13
   8.74999985E-02   7.42735084E-13
   8.87499973E-02   8.86654411E-13
   9.00000036E-02   9.28803475E-13
   9.12500024E-02   8.54051096E-13
   9.25000012E-02   6.61463018E-13
   9.37500000E-02   3.65737334E-13
   9.49999988E-02  -3.36140303E-15
   9.62499976E-02  -4.03678203E-13
   9.74999964E-02  -7.85273376E-13
   9.87500027E-02  -1.09649366E-12
  0.100000001      -1.29079961E-12
  0.101250000      -1.33346914E-12
  0.102499999      -1.20724145E-12
  0.103749998      -9.16027996E-13
  0.104999997      -4.86021759E-13
  0.106250003       3.61627639E-14
  0.107500002       5.88296013E-13
  0.108750001       1.09984504E-12
  0.109999999       1.50096905E-12
  0.111249998       1.73206675E-12
  0.112499997       1.75258582E-12
  0.113750003       1.54780117E-12
  0.115000002       1.13247356E-12
  0.116250001       5.50642865E-13
  0.117500000      -1.28672924E-13
  0.118749999      -8.19555307E-13
  0.119999997      -1.43013834E-12
  0.121250004      -1.87507692E-12
  0.122500002      -2.08784747E-12
  0.123750001      -2.03109751E-12
  0.125000000      -1.70343752E-12
  0.126249999      -1.14146019E-12
  0.127499998      -4.16379198E-13
  0.128749996       3.74555638E-13
  0.129999995       1.12094557E-12
  0.131249994       1.71481677E-12
  0.132499993       2.06673567E-12
  0.133750007       2.12010834E-12
  0.135000005       1.86138930E-12
  0.136250004       1.32439394E-12
  0.137500003       5.87630368E-13
  0.138750002      -2.35411571E-13
  0.140000001      -1.01208245E-12
  0.141249999      -1.61049928E-12
  0.142499998      -1.92084781E-12
  0.143749997      -1.87484121E-12
  0.144999996      -1.46017085E-12
  0.146249995      -7.27247147E-13
  0.147499993       2.13523575E-13
  0.148750007       1.20436647E-12
  0.150000006       2.06166182E-12
  0.151250005       2.60387306E-12
  0.152500004       2.68215289E-12
  0.153750002       2.20914042E-12
  0.155000001       1.18124629E-12
  0.156250000      -3.09774721E-13
  0.157499999      -2.07894466E-12
  0.158749998      -3.86519592E-12
  0.159999996      -5.36262571E-12
  0.161249995      -6.26281622E-12
  0.162499994      -6.30315418E-12
  0.163749993      -5.31458818E-12
  0.165000007      -3.26162188E-12
  0.166250005      -2.67603377E-13
  0.167500004       3.38025549E-12
  0.168750003       7.24943369E-12
  0.170000002       1.08045031E-11
  0.171250001       1.34702674E-11
  0.172499999       1.47091905E-11
  0.173749998       1.41038604E-11
  0.174999997       1.14335251E-11
  0.176249996       6.73312838E-12
  0.177499995       3.24467422E-13
  0.178749993      -7.18828816E-12
  0.180000007      -1.49624688E-11
  0.181250006      -2.19990293E-11
  0.182500005      -2.72562823E-11
  0.183750004      -2.97837727E-11
  0.185000002      -2.88606795E-11
  0.186250001      -2.41207002E-11
  0.187500000      -1.56454173E-11
  0.188749999      -4.01002929E-12
  0.189999998       9.72996336E-12
  0.191249996       2.41160546E-11
  0.192499995       3.74251567E-11
  0.193749994       4.78579988E-11
  0.194999993       5.37586572E-11
  0.196250007       5.38405674E-11
  0.197500005       4.73905463E-11
  0.198750004       3.44228743E-11
  0.200000003       1.57584484E-11
  0.201250002      -6.98876070E-12
  0.202500001      -3.15255495E-11
  0.203749999      -5.50897730E-11
  0.204999998      -7.47402001E-11
  0.206249997      -8.76980641E-11
  0.207499996      -9.17025830E-11
  0.208749995      -8.53383128E-11
  0.209999993      -6.82908313E-11
  0.211250007      -4.14930243E-11
  0.212500006      -7.13350039E-12
  0.213750005       3.14862962E-11
  0.215000004       7.02428393E-11
  0.216250002       1.04606851E-10
  0.217500001       1.30146199E-10
  0.218750000       1.43061632E-10
  0.219999999       1.40694401E-10
  0.221249998       1.21941290E-10
  0.222499996       8.75203382E-11
  0.223749995       4.00422889E-11
  0.224999994      -1.61363319E-11
  0.226249993      -7.52790191E-11
  0.227500007      -1.30827862E-10
  0.228750005      -1.76104034E-10
  0.230000004      -2.05078010E-10
  0.231250003      -2.13123977E-10
  0.232500002      -1.97667827E-10
  0.233750001      -1.58644459E-10
  0.234999999      -9.86961901E-11
  0.236249998      -2.30696452E-11
  0.237499997       6.07986023E-11
  0.238749996       1.43981493E-10
  0.239999995       2.16984569E-10
  0.241249993       2.70800410E-10
  0.242500007       2.97980418E-10
  0.243750006       2.93599867E-10
  0.245000005       2.55996974E-10
  0.246250004       1.87184129E-10
  0.247500002       9.28620653E-11
  0.248750001      -1.79907096E-11
  0.250000000      -1.33933545E-10
  0.251249999      -2.42215276E-10
  0.252499998      -3.30149907E-10
  0.253749996      -3.86571247E-10
  0.254999995      -4.03202777E-10
  0.256249994      -3.75779019E-10
  0.257499993      -3.04774206E-10
  0.258749992      -1.95630567E-10
  0.259999990      -5.84290116E-11
  0.261249989       9.29906291E-11
  0.262499988       2.42391773E-10
  0.263749987       3.72855524E-10
  0.264999986       4.68670047E-10
  0.266250014       5.17186849E-10
  0.267500013       5.10429032E-10
  0.268750012       4.46251286E-10
  0.270000011       3.28895744E-10
  0.271250010       1.68845715E-10
  0.272500008      -1.80425206E-11
  0.273750007      -2.12067877E-10
  0.275000006      -3.91731370E-10
  0.276250005      -5.36092837E-10
  0.277500004      -6.27182528E-10
  0.278750002      -6.52193410E-10
  0.280000001      -6.05189621E-10
  0.281250000      -4.88113938E-10
  0.282499999      -3.10940135E-10
  0.283749998      -9.09164827E-11
  0.284999996       1.49060972E-10
  0.286249995       3.82795795E-10
  0.287499994       5.83625148E-10
  0.288749993       7.27435667E-10
  0.289999992       7.95524313E-10
  0.291249990       7.76967657E-10
  0.292499989       6.70204447E-10
  0.293749988       4.83616425E-10
  0.294999987       2.34995273E-10
  0.296249986      -5.00902549E-11
  0.297500014      -3.40886763E-10
  0.298750013      -6.04750694E-10
  0.300000012      -8.10795042E-10
  0.301250011      -9.33483180E-10
  0.302500010      -9.55754031E-10
  0.303750008      -8.71300643E-10
  0.305000007      -6.85704160E-10
  0.306250006      -4.16248730E-10
  0.307500005      -9.03868369E-11
  0.308750004       2.57021460E-10
  0.310000002       5.87422833E-10
  0.311250001       8.62846239E-10
  0.312500000       1.05026832E-09
  0.313749999       1.12556764E-09
  0.314999998       1.07659348E-09
  0.316249996       9.04966713E-10
  0.317499995       6.26355134E-10
  0.318749994       2.69139017E-10
  0.319999993      -1.28435998E-10
  0.321249992      -5.22340504E-10
  0.322499990      -8.67647620E-10
  0.323749989      -1.12368181E-09
  0.324999988      -1.25884503E-09
  0.326249987      -1.25454158E-09
  0.327499986      -1.10772103E-09
  0.328750014      -8.31691493E-10
  0.330000013      -4.55054966E-10
  0.331250012      -1.88243796E-11
  0.332500011       4.27995556E-10
  0.333750010       8.33901281E-10
  0.335000008       1.15084264E-09
  0.336250007       1.33995282E-09
  0.337500006       1.37637457E-09
  0.338750005       1.25258237E-09
  0.340000004       9.79763604E-10
  0.341250002       5.87026705E-10
  0.342500001       1.18464308E-10
  0.343750000      -3.71656234E-10
  0.344999999      -8.25063462E-10
  0.346249998      -1.18632892E-09
  0.347499996      -1.40959522E-09
  0.348749995      -1.46438328E-09
  0.349999994      -1.33974887E-09
  0.351249993      -1.04624065E-09
  0.352499992      -6.15338003E-10
  0.353749990      -9.63533420E-11
  0.354999989       4.48931198E-10
  0.356249988       9.53328638E-10
  0.357499987       1.35223410E-09
  0.358749986       1.59161129E-09
  0.360000014       1.63501601E-09
  0.361250013       1.46877599E-09
  0.362500012       1.10463261E-09
  0.363750011       5.79414183E-10
  0.365000010      -4.83385901E-11
  0.366250008      -7.04526215E-10
  0.367500007      -1.30780520E-09
  0.368750006      -1.77916204E-09
  0.370000005      -2.05166262E-09
  0.371250004      -2.07921236E-09
  0.372500002      -1.84324123E-09
  0.373750001      -1.35641909E-09
  0.375000000      -6.62812638E-10
  0.376249999       1.65699052E-10
  0.377499998       1.03651010E-09
  0.378749996       1.84621063E-09
  0.379999995       2.49230947E-09
  0.381249994       2.88547075E-09
  0.382499993       2.96086156E-09
  0.383749992       2.68722089E-09
  0.384999990       2.07249173E-09
  0.386249989       1.16518240E-09
  0.387499988       5.10842098E-11
  0.388749987      -1.15450638E-09
  0.389999986      -2.31839836E-09
  0.391250014      -3.30379502E-09
  0.392500013      -3.98576727E-09
  0.393750012      -4.26619584E-09
  0.395000011      -4.08647161E-09
  0.396250010      -3.43637119E-09
  0.397500008      -2.35793962E-09
  0.398750007      -9.43692124E-10
  0.400000006       6.70930089E-10
  0.401250005       2.32030994E-09
  0.402500004       3.82540932E-09
  0.403750002       5.01282882E-09
  0.405000001       5.73423486E-09
  0.406250000       5.88394888E-09
  0.407499999       5.41271561E-09
  0.408749998       4.33594183E-09
  0.409999996       2.73526490E-09
  0.411249995       7.52991169E-10
  0.412499994      -1.42030643E-09
  0.413749993      -3.56396179E-09
  0.414999992      -5.44950440E-09
  0.416249990      -6.86469592E-09
  0.417499989      -7.63694619E-09
  0.418749988      -7.65341213E-09
  0.419999987      -6.87562318E-09
  0.421249986      -5.34684119E-09
  0.422500014      -3.19095617E-09
  0.423750013      -6.02870365E-10
  0.425000012       2.16893281E-09
  0.426250011       4.84631180E-09
  0.427500010       7.14915682E-09
  0.428750008       8.82452156E-09
  0.430000007       9.67393721E-09
  0.431250006       9.57606971E-09
  0.432500005       8.50213855E-09
  0.433750004       6.52230225E-09
  0.435000002       3.80200893E-09
  0.436250001       5.88613658E-10
  0.437500000      -2.81136159E-09
  0.438749999      -6.06109030E-09
  0.439999998      -8.82682194E-09
  0.441249996      -1.08119966E-08
  0.442499995      -1.17884245E-08
  0.443749994      -1.16215757E-08
  0.444999993      -1.02872999E-08
  0.446249992      -7.87751464E-09
  0.447499990      -4.59507898E-09
  0.448749989      -7.36471328E-10
  0.449999988       3.33490235E-09
  0.451249987       7.22252480E-09
  0.452499986       1.05355955E-08
  0.453750014       1.29275870E-08
  0.455000013       1.41323273E-08
  0.456250012       1.39924738E-08
  0.457500011       1.24777930E-08
  0.458750010       9.69174963E-09
  0.460000008       5.86599525E-09
  0.461250007       1.34073119E-09
  0.462500006      -3.46562312E-09
  0.463750005      -8.09448242E-09
  0.465000004      -1.20905481E-08
  0.466250002      -1.50458241E-08
  0.467500001      -1.66412359E-08
  0.468750000      -1.66790315E-08
  0.469999999      -1.51054511E-08
  0.471249998      -1.20207337E-08
  0.472499996      -7.67197861E-09
  0.473749995      -2.43581932E-09
  0.474999994       3.21514437E-09
  0.476249993       8.75300543E-09
  0.477499992       1.36455833E-08
  0.478749990       1.74051618E-08
  0.479999989       1.96351984E-08
  0.481249988       2.00726795E-08
  0.482499987       1.86140330E-08
  0.483749986       1.53338160E-08
  0.485000014       1.04794546E-08
  0.486250013       4.45650539E-09
  0.487500012      -2.20947283E-09
  0.488750011      -8.91188456E-09
  0.490000010      -1.50189674E-08
  0.491250008      -1.99348342E-08
  0.492500007      -2.31544846E-08
  0.493750006      -2.43135894E-08
  0.495000005      -2.32271642E-08
  0.496250004      -1.99147383E-08
  0.497500002      -1.46043044E-08
  0.498750001      -7.71334197E-09
  0.500000000       1.69396039E-10
  0.501250029       8.33796587E-09
  0.502499998       1.60436073E-08
  0.503750026       2.25465744E-08
  0.504999995       2.71938863E-08
  0.506250024       2.94713427E-08
  0.507499993       2.90794020E-08
  0.508750021       2.59476423E-08
  0.509999990       2.02614192E-08
  0.511250019       1.24511725E-08
  0.512499988       3.16706750E-09
  0.513750017      -6.77922207E-09
  0.514999986      -1.64761129E-08
  0.516250014      -2.50037573E-08
  0.517499983      -3.15181801E-08
  0.518750012      -3.53230192E-08
  0.519999981      -3.59498955E-08
  0.521250010      -3.32174004E-08
  0.522499979      -2.72551084E-08
  0.523750007      -1.85036058E-08
  0.524999976      -7.67578179E-09
  0.526250005       4.28034852E-09
  0.527499974       1.62650249E-08
  0.528750002       2.71627112E-08
  0.529999971       3.58728975E-08
  0.531250000       4.14776160E-08
  0.532500029       4.33436007E-08
  0.533749998       4.11463361E-08
  0.535000026       3.49406548E-08
  0.536249995       2.51847965E-08
  0.537500024       1.26878010E-08
  0.538749993      -1.44756618E-09
  0.540000021      -1.59187206E-08
  0.541249990      -2.93194127E-08
  0.542500019      -4.03305300E-08
  0.543749988      -4.77944724E-08
  0.545000017      -5.08826652E-08
  0.546249986      -4.91143339E-08
  0.547500014      -4.25210338E-08
  0.548749983      -3.15609974E-08
  0.550000012      -1.72070322E-08
  0.551249981      -7.50450757E-10
  0.552500010       1.62575127E-08
  0.553749979       3.21589546E-08
  0.555000007       4.53079956E-08
  0.556249976       5.43584733E-08
  0.557500005       5.82632218E-08
  0.558749974       5.64678508E-08
  0.560000002       4.89663492E-08
  0.561249971       3.63206141E-08
  0.562500000       1.96739798E-08
  0.563750029       5.64903846E-10
  0.564999998      -1.91481373E-08
  0.566250026      -3.74684497E-08
  0.567499995      -5.25300479E-08
  0.568750024      -6.26878034E-08
  0.569999993      -6.67878624E-08
  0.571250021      -6.42037250E-08
  0.572499990      -5.50105170E-08
  0.573750019      -3.99278868E-08
  0.574999988      -2.03771044E-08
  0.576250017       1.81790871E-09
  0.577499986       2.44396041E-08
  0.578750014       4.52163462E-08
  0.579999983       6.19350971E-08
  0.581250012       7.27959772E-08
  0.582499981       7.65459731E-08
  0.583750010       7.25270439E-08
  0.584999979       6.10171256E-08
  0.586250007       4.29777671E-08
  0.587499976       2.00751202E-08
  0.588750005      -5.44621415E-09
  0.589999974      -3.10216350E-08
  0.591250002      -5.40069109E-08
  0.592499971      -7.19546307E-08
  0.593750000      -8.28921287E-08
  0.595000029      -8.54777653E-08
  0.596249998      -7.92563100E-08
  0.597500026      -6.46859988E-08
  0.598749995      -4.30348557E-08
  0.600000024      -1.64543277E-08
  0.601249993       1.24684503E-08
  0.602500021       4.07722354E-08
  0.603749990       6.54176731E-08
  0.605000019       8.38161114E-08
  0.606249988       9.39002405E-08
  0.607500017       9.43614822E-08
  0.608749986       8.50390620E-08
  0.610000014       6.66496405E-08
  0.611249983       4.08999412E-08
  0.612500012       1.03725961E-08
  0.613749981      -2.19005418E-08
  0.615000010      -5.25315507E-08
  0.616249979      -7.82271670E-08
  0.617500007      -9.61793916E-08
  0.618749976      -1.04450123E-07
  0.620000005      -1.01835937E-07
  0.621249974      -8.85336533E-08
  0.622500002      -6.56911041E-08
  0.623749971      -3.55258436E-08
  0.625000000      -1.09074527E-09
  0.626250029       3.40625022E-08
  0.627499998       6.63101005E-08
  0.628750026       9.20823311E-08
  0.629999995       1.08629813E-07
  0.631250024       1.13984377E-07
  0.632499993       1.07313703E-07
  0.633750021       8.92127403E-08
  0.634999990       6.12920701E-08
  0.636250019       2.64603379E-08
  0.637499988      -1.18689911E-08
  0.638750017      -4.95883441E-08
  0.639999986      -8.26862987E-08
  0.641250014      -1.07557092E-07
  0.642499983      -1.21544474E-07
  0.643750012      -1.23001811E-07
  0.644999981      -1.11535456E-07
  0.646250010      -8.80769235E-08
  0.647499979      -5.50180310E-08
  0.648750007      -1.57121391E-08
  0.649999976       2.58293280E-08
  0.651250005       6.51442349E-08
  0.652499974       9.82361783E-08
  0.653750002       1.21442312E-07
  0.654999971       1.32295682E-07
  0.656250000       1.29525247E-07
  0.657500029       1.13248198E-07
  0.658749998       8.51201918E-08
  0.660000026       4.79747619E-08
  0.661249995       5.67908653E-09
  0.662500024      -3.72295688E-08
  0.663749993      -7.63521655E-08
  0.665000021      -1.07466953E-07
  0.666249990      -1.27238579E-07
  0.667500019      -1.33644832E-07
  0.668749988      -1.25829331E-07
  0.670000017      -1.04687501E-07
  0.671249986      -7.25420719E-08
  0.672500014      -3.27884635E-08
  0.673749983       1.02524043E-08
  0.675000012       5.20222372E-08
  0.676249981       8.79387017E-08
  0.677500010       1.14113583E-07
  0.678749979       1.27731369E-07
  0.680000007       1.27277644E-07
  0.681249976       1.12764425E-07
  0.682500005       8.59435119E-08
  0.683749974       4.96274062E-08
  0.685000002       7.86658649E-09
  0.686249971      -3.47295668E-08
  0.687500000      -7.34435091E-08
  0.688750029      -1.04128610E-07
  0.689999998      -1.23254210E-07
  0.691250026      -1.28774047E-07
  0.692499995      -1.20030052E-07
  0.693750024      -9.79507249E-08
  0.694999993      -6.49729586E-08
  0.696250021      -2.48197125E-08
  0.697499990       1.80649042E-08
  0.698750019       5.88521658E-08
  0.699999988       9.30348563E-08
  0.701250017       1.16808899E-07
  0.702499986       1.27457938E-07
  0.703750014       1.23716944E-07
  0.704999983       1.05964546E-07
  0.706250012       7.60126255E-08
  0.707499981       3.73527662E-08
  0.708750010      -5.74218761E-09
  0.709999979      -4.84975970E-08
  0.711250007      -8.60997602E-08
  0.712499976      -1.14080535E-07
  0.713750005      -1.29263825E-07
  0.714999974      -1.29906851E-07
  0.716250002      -1.15727168E-07
  0.717499971      -8.82812543E-08
  0.718750000      -5.03846174E-08
  0.720000029      -6.53245191E-09
  0.721249998       3.86718746E-08
  0.722500026       7.98257247E-08
  0.723749995       1.12340750E-07
  0.725000024       1.32632209E-07
  0.726249993       1.37923678E-07
  0.727500021       1.27638231E-07
  0.728749990       1.02704327E-07
  0.730000019       6.58383428E-08
  0.731249988       2.09945927E-08
  0.732500017      -2.68449529E-08
  0.733749986      -7.22325737E-08
  0.735000014      -1.10162262E-07
  0.736249983      -1.36355169E-07
  0.737500012      -1.47614188E-07
  0.738749981      -1.42554086E-07
  0.740000010      -1.21484376E-07
  0.741249979      -8.65835332E-08
  0.742500007      -4.16346175E-08
  0.743749976       8.48557757E-09
  0.745000005       5.82211541E-08
  0.746249974       1.01935100E-07
  0.747500002       1.34843759E-07
  0.748749971       1.53179087E-07
  0.750000000       1.54690511E-07
  0.751250029       1.39134613E-07
  0.752499998       1.08188104E-07
  0.753750026       6.49128609E-08
  0.754999995       1.41346161E-08
  0.756250024      -3.84344965E-08
  0.757499993      -8.71123831E-08
  0.758750021      -1.26192916E-07
  0.759999990      -1.51586548E-07
  0.761250019      -1.60213347E-07
  0.762499988      -1.50946519E-07
  0.763750017      -1.24807698E-07
  0.764999986      -8.44681480E-08
  0.766250014      -3.45102187E-08
  0.767499983       1.96213943E-08
  0.768750012       7.19260811E-08
  0.769999981       1.16610579E-07
  0.771250010       1.48506615E-07
  0.772499979       1.64113587E-07
  0.773750007       1.61442316E-07
  0.774999976       1.40844350E-07
  0.776250005       1.04567313E-07
  0.777499974       5.63581750E-08
  0.778750002       1.66766834E-09
  0.779999971      -5.32271649E-08
  0.781250000      -1.02274640E-07
  0.782500029      -1.39822717E-07
  0.783749998      -1.61893027E-07
  0.785000026      -1.65525847E-07
  0.786249995      -1.50291470E-07
  0.787500024      -1.17965747E-07
  0.788749993      -7.18930337E-08
  0.790000021      -1.72295671E-08
  0.791249990       3.99068512E-08
  0.792500019       9.29417112E-08
  0.793749988       1.36021640E-07
  0.795000017       1.64083545E-07
  0.796249986       1.73750010E-07
  0.797500014       1.63722959E-07
  0.798749983       1.34822713E-07
  0.800000012       9.03425530E-08
  0.801249981       3.51893021E-08
  0.802500010      -2.49098573E-08
  0.803749979      -8.29236768E-08
  0.805000007      -1.32238583E-07
  0.806249976      -1.67298680E-07
  0.807500005      -1.84023449E-07
  0.808749974      -1.80174283E-07
  0.810000002      -1.55817318E-07
  0.811249971      -1.13401448E-07
  0.812500000      -5.74969974E-08
  0.813750029       5.99759620E-09
  0.814999998       6.98858216E-08
  0.816250026       1.27253614E-07
  0.817499995       1.71463341E-07
  0.818750024       1.97515035E-07
  0.819999993       2.02046280E-07
  0.821250021       1.84501204E-07
  0.822499990       1.46216948E-07
  0.823750019       9.11358171E-08
  0.824999988       2.49759626E-08
  0.826250017      -4.51863009E-08
  0.827499986      -1.11775847E-07
  0.828750014      -1.67500005E-07
  0.829999983      -2.06472365E-07
  0.831250012      -2.23999407E-07
  0.832499981      -2.18109989E-07
  0.833750010      -1.89290873E-07
  0.834999979      -1.40405646E-07
  0.836250007      -7.63401431E-08
  0.837499976      -3.80709153E-09
  0.838750005       6.92548099E-08
  0.839999974       1.35537860E-07
  0.841250002       1.87602168E-07
  0.842499971       2.20114188E-07
  0.843750000       2.29567320E-07
  0.845000029       2.14771646E-07
  0.846249998       1.77800487E-07
  0.847500026       1.22289663E-07
  0.848749995       5.43990417E-08
  0.850000024      -1.85336546E-08
  0.851249993      -8.89302925E-08
  0.852500021      -1.49008414E-07
  0.853749990      -1.92433902E-07
  0.855000019      -2.14519233E-07
  0.856249988      -2.13413472E-07
  0.857500017      -1.89194722E-07
  0.858749986      -1.44663460E-07
  0.860000014      -8.47115373E-08
  0.861249983      -1.59675491E-08
  0.862500012       5.37680300E-08
  0.863749981       1.17157455E-07
  0.865000010       1.67277648E-07
  0.866249979       1.98599764E-07
  0.867500007       2.07872603E-07
  0.868749976       1.94266832E-07
  0.870000005       1.59368994E-07