 -0.200000003       0.00000000    
 -0.198750004       0.00000000    
 -0.197500005       0.00000000    
 -0.196250007       0.00000000    
 -0.194999993       0.00000000    
 -0.193749994       0.00000000    
 -0.192499995       0.00000000    
 -0.191249996       0.00000000    
 -0.189999998       0.00000000    
 -0.188749999       0.00000000    
 -0.187500000       0.00000000    
 -0.186250001       0.00000000    
 -0.185000002       0.00000000    
 -0.183750004       0.00000000    
 -0.182500005       0.00000000    
 -0.181250006       0.00000000    
 -0.180000007       0.00000000    
 -0.178749993       0.00000000    
 -0.177499995       0.00000000    
 -0.176249996       0.00000000    
 -0.174999997       0.00000000    
 -0.173749998       0.00000000    
 -0.172499999       0.00000000    
 -0.171250001       0.00000000    
 -0.170000002       0.00000000    
 -0.168750003       0.00000000    
 -0.167500004       0.00000000    
 -0.166250005       0.00000000    
 -0.165000007       0.00000000    
 -0.163749993       0.00000000    
 -0.162499994       0.00000000    
 -0.161249995       0.00000000    
 -0.159999996       0.00000000    
 -0.158749998       0.00000000    
 -0.157499999       0.00000000    
 -0.156250000       0.00000000    
 -0.155000001       0.00000000    
 -0.153750002       0.00000000    
 -0.152500004       0.00000000    
 -0.151250005       0.00000000    
 -0.150000006       0.00000000    
 -0.148750007       0.00000000    
 -0.147499993       0.00000000    
 -0.146249995       0.00000000    
 -0.144999996       0.00000000    
 -0.143749997       0.00000000    
 -0.142499998       0.00000000    
 -0.141249999       0.00000000    
 -0.140000001       0.00000000    
 -0.138750002       0.00000000    
 -0.137500003       0.00000000    
 -0.136250004       0.00000000    
 -0.135000005       0.00000000    
 -0.133750007       0.00000000    
 -0.132499993       0.00000000    
 -0.131249994       0.00000000    
 -0.129999995       0.00000000    
 -0.128749996       0.00000000    
 -0.127499998       0.00000000    
 -0.126249999       0.00000000    
 -0.125000000       0.00000000    
 -0.123750001       0.00000000    
 -0.122500002       0.00000000    
 -0.121250004       0.00000000    
 -0.119999997       0.00000000    
 -0.118749999       0.00000000    
 -0.117500000       0.00000000    
 -0.116250001       0.00000000    
 -0.115000002       0.00000000    
 -0.113750003       0.00000000    
 -0.112499997       0.00000000    
 -0.111249998       0.00000000    
 -0.109999999       3.36311631E-41
 -0.108750001       7.84727140E-41
 -0.107500002       1.68155816E-40
 -0.106250003       3.23087578E-40
 -0.104999997       4.59625896E-40
 -0.103749998       6.18584990E-40
 -0.102499999       4.39510257E-40
 -0.101250000      -1.66199883E-39
 -0.100000001      -2.94459471E-39
  -9.87500027E-02  -3.45595374E-39
  -9.74999964E-02  -6.04642771E-39
  -9.62499976E-02  -8.31985791E-39
  -9.49999988E-02  -6.75673750E-39
  -9.37500000E-02  -1.97080298E-39
  -9.25000012E-02   1.01760627E-38
  -9.12500024E-02   3.33361450E-38
  -9.00000036E-02   6.52710924E-38
  -8.87499973E-02   1.05786386E-37
  -8.74999985E-02   1.39705197E-37
  -8.62499997E-02   1.48305616E-37
  -8.50000009E-02   1.01082474E-37
  -8.37500021E-02  -4.69073310E-38
  -8.25000033E-02  -3.29434260E-37
  -8.12499970E-02  -7.65148422E-37
  -7.99999982E-02  -1.31739095E-36
  -7.87499994E-02  -1.87372375E-36
  -7.75000006E-02  -2.20043840E-36
  -7.62500018E-02  -1.93725365E-36
  -7.50000030E-02  -6.29074359E-37
  -7.37499967E-02   2.18395590E-36
  -7.24999979E-02   6.77594577E-36
  -7.12499991E-02   1.29664933E-35
  -7.00000003E-02   1.97763881E-35
  -6.87500015E-02   2.51150280E-35
  -6.75000027E-02   2.56314764E-35
  -6.62499964E-02   1.69169393E-35
  -6.49999976E-02  -5.69562635E-36
  -6.37499988E-02  -4.56054242E-35
  -6.25000000E-02  -1.02614883E-34
  -6.12500012E-02  -1.70076079E-34
  -5.99999987E-02  -2.32150055E-34
  -5.87499999E-02  -2.62241792E-34
  -5.75000010E-02  -2.24146592E-34
  -5.62499985E-02  -7.75012953E-35
  -5.49999997E-02   2.11135224E-34
  -5.37500009E-02   6.51342889E-34
  -5.24999984E-02   1.20767893E-33
  -5.12499996E-02   1.77863352E-33
  -5.00000007E-02   2.18306419E-33
  -4.87499982E-02   2.16408253E-33
  -4.74999994E-02   1.42127984E-33
  -4.62500006E-02  -3.19926377E-34
  -4.50000018E-02  -3.19964493E-33
  -4.37499993E-02  -7.08508869E-33
  -4.25000004E-02  -1.14281120E-32
  -4.12500016E-02  -1.51627648E-32
  -3.99999991E-02  -1.67022760E-32
  -3.87500003E-02  -1.41009231E-32
  -3.75000015E-02  -5.43441324E-33
  -3.62499990E-02   1.05839469E-32
  -3.50000001E-02   3.37983514E-32
  -3.37500013E-02   6.17527032E-32
  -3.24999988E-02   8.90148504E-32
  -3.12500000E-02   1.07002488E-31
  -2.99999993E-02   1.04664830E-31
  -2.87500005E-02   7.03188244E-32
  -2.74999999E-02  -5.24050516E-33
  -2.62499992E-02  -1.24555922E-31
  -2.50000004E-02  -2.78888527E-31
  -2.37499997E-02  -4.44293842E-31
  -2.25000009E-02  -5.79946172E-31
  -2.12500002E-02  -6.30455706E-31
  -1.99999996E-02  -5.33695265E-31
  -1.87500007E-02  -2.34852016E-31
  -1.75000001E-02   2.94011826E-31
  -1.62499994E-02   1.03159419E-30
  -1.49999997E-02   1.88711512E-30
  -1.37499999E-02   2.68908871E-30
  -1.25000002E-02   3.19094543E-30
  -1.12500004E-02   3.10053957E-30
  -9.99999978E-03   2.13733480E-30
  -8.75000004E-03   1.15161536E-31
  -7.49999983E-03  -2.95981447E-30
  -6.25000009E-03  -6.79557610E-30
  -4.99999989E-03  -1.07531718E-29
  -3.74999992E-03  -1.38504576E-29
  -2.49999994E-03  -1.48606064E-29
  -1.24999997E-03  -1.25232910E-29
   0.00000000      -5.86407450E-30
   1.24999997E-03   5.41425626E-30
   2.49999994E-03   2.05406402E-29
   3.74999992E-03   3.73901063E-29
   4.99999989E-03   5.24275024E-29
   6.25000009E-03   6.09981796E-29
   7.49999983E-03   5.80422984E-29
   8.75000004E-03   3.92300133E-29
   9.99999978E-03   2.40118758E-30
   1.12500004E-02  -5.09371276E-29
   1.25000002E-02  -1.14423831E-28
   1.37499999E-02  -1.76409826E-28
   1.49999997E-02  -2.20708201E-28
   1.62499994E-02  -2.28828789E-28
   1.75000001E-02  -1.83735594E-28
   1.87500007E-02  -7.47821685E-29
   1.99999996E-02   9.69650176E-29
   2.12500002E-02   3.14227580E-28
   2.25000009E-02   5.41328496E-28
   2.37499997E-02   7.25805285E-28
   2.50000004E-02   8.04924702E-28
   2.62499992E-02   7.17383241E-28
   2.74999999E-02   4.19257278E-28
   2.87500005E-02  -9.81742308E-29
   2.99999993E-02  -7.92512709E-28
   3.12500000E-02  -1.56097826E-27
   3.24999988E-02  -2.24268938E-27
   3.37500013E-02  -2.63631595E-27
   3.50000001E-02  -2.53454037E-27
   3.62499990E-02  -1.77306619E-27
   3.75000015E-02  -2.87471791E-28
   3.87500003E-02   1.83326710E-27
   3.99999991E-02   4.31104357E-27
   4.12500016E-02   6.67603971E-27
   4.25000004E-02   8.31013041E-27
   4.37499993E-02   8.54242914E-27
   4.50000018E-02   6.79262857E-27
   4.62500006E-02   2.74460579E-27
   4.74999994E-02  -3.48093849E-27
   4.87499982E-02  -1.11967042E-26
   5.00000007E-02  -1.91083404E-26
   5.12499996E-02  -2.54045244E-26
   5.24999984E-02  -2.80018658E-26
   5.37500009E-02  -2.49405647E-26
   5.49999997E-02  -1.48894538E-26
   5.62499985E-02   2.32079527E-27
   5.75000010E-02   2.52516918E-26
   5.87499999E-02   5.06320080E-26
   5.99999987E-02   7.34809080E-26
   6.12500012E-02   8.76674867E-26
   6.25000000E-02   8.69230855E-26
   6.37499988E-02   6.62242505E-26
   6.49999976E-02   2.33518235E-26
   6.62499964E-02  -3.96710137E-26
   6.75000027E-02  -1.15626831E-25
   6.87500015E-02  -1.92009829E-25
   7.00000003E-02  -2.52084545E-25
   7.12499991E-02  -2.77226923E-25
   7.24999979E-02  -2.50429318E-25
   7.37499967E-02  -1.60556946E-25
   7.50000030E-02  -6.64645511E-27
   7.62500018E-02   1.98687179E-25
   7.75000006E-02   4.27754945E-25
   7.87499994E-02   6.39119871E-25
   7.99999982E-02   7.82306605E-25
   8.12499970E-02   8.05887432E-25
   8.25000033E-02   6.68200833E-25
   8.37500021E-02   3.49166699E-25
   8.50000009E-02  -1.39019318E-25
   8.62499997E-02  -7.44935256E-25
   8.74999985E-02  -1.37730105E-24
   8.87499973E-02  -1.91262423E-24
   9.00000036E-02  -2.21187210E-24
   9.12500024E-02  -2.14520310E-24
   9.25000012E-02  -1.62181154E-24
   9.37500000E-02  -6.20003799E-25
   9.49999988E-02   7.88768510E-25
   9.62499976E-02   2.42868382E-24
   9.74999964E-02   4.02707497E-24
   9.87500027E-02   5.24432600E-24
  0.100000001       5.72606797E-24
  0.101250000       5.17288754E-24
  0.102499999       3.41776354E-24
  0.103749998       4.97147834E-25
  0.104999997      -3.30092397E-24
  0.106250003      -7.42805786E-24
  0.107500002      -1.11186497E-23
  0.108750001      -1.34902046E-23
  0.109999999      -1.36954710E-23
  0.111249998      -1.11089349E-23
  0.112499997      -5.51812660E-24
  0.113750003       2.71873121E-24
  0.115000002       1.25907983E-23
  0.116250001       2.24662332E-23
  0.117500000       3.02619507E-23
  0.118749999       3.37543515E-23
  0.119999997       3.10053354E-23
  0.121250004       2.08471798E-23
  0.122500002       3.34240366E-24
  0.123750001      -1.98834994E-23
  0.125000000      -4.55400849E-23
  0.126249999      -6.88856756E-23
  0.127499998      -8.43005920E-23
  0.128749996      -8.62022201E-23
  0.129999995      -7.02098070E-23
  0.131249994      -3.43911422E-23
  0.132499993       1.96395410E-23
  0.133750007       8.60361364E-23
  0.135000005       1.54700294E-22
  0.136250004       2.12114575E-22
  0.137500003       2.43097926E-22
  0.138750002       2.33387212E-22
  0.140000001       1.72758279E-22
  0.141249999       5.82173100E-23
  0.142499998      -1.03351116E-22
  0.143749997      -2.93743604E-22
  0.144999996      -4.83818768E-22
  0.146249995      -6.36114462E-22
  0.147499993      -7.09797504E-22
  0.148750007      -6.67612202E-22
  0.150000006      -4.84026977E-22
  0.151250005      -1.53334731E-22
  0.152500004       3.03844028E-22
  0.153750002       8.37307517E-22
  0.155000001       1.36872219E-21
  0.156250000       1.79871757E-21
  0.157499999       2.01974463E-21
  0.158749998       1.93376672E-21
  0.159999996       1.47273419E-21
  0.161249995       6.18767651E-22
  0.162499994      -5.79723504E-22
  0.163749993      -1.99991047E-21
  0.165000007      -3.44783298E-21
  0.166250005      -4.67524784E-21
  0.167500004      -5.41026123E-21
  0.168750003      -5.39952242E-21
  0.170000002      -4.45718397E-21
  0.171250001      -2.51352824E-21
  0.172499999       3.45372190E-22
  0.173749998       3.85594928E-21
  0.174999997       7.58120483E-21
  0.176249996       1.09455519E-20
  0.177499995       1.33011951E-20
  0.178749993       1.40214675E-20
  0.180000007       1.26109274E-20
  0.181250006       8.81712171E-21
  0.182500005       2.72529092E-21
  0.183750004      -5.18334636E-21
  0.185000002      -1.40270703E-20
  0.186250001      -2.25844509E-20
  0.187500000      -2.94234348E-20
  0.188749999      -3.30908466E-20
  0.189999998      -3.23428750E-20
  0.191249996      -2.63866496E-20
  0.192499995      -1.50956875E-20
  0.193749994       8.40708075E-22
  0.194999993       1.98703388E-20
  0.196250007       3.96596042E-20
  0.197500005       5.73135869E-20
  0.198750004       6.97244045E-20
  0.200000003       7.40148998E-20
  0.201250002       6.80245095E-20
  0.202500001       5.07678676E-20
  0.203749999       2.27903914E-20
  0.204999998      -1.36516951E-20
  0.206249997      -5.46430601E-20
  0.207499996      -9.49220191E-20
  0.208749995      -1.28447617E-19
  0.209999993      -1.49174411E-19
  0.211250007      -1.51949149E-19
  0.212500006      -1.33412575E-19
  0.213750005      -9.27722865E-20
  0.215000004      -3.23118525E-20
  0.216250002       4.24769685E-20
  0.217500001       1.23211926E-19
  0.218750000       1.99403790E-19
  0.219999999       2.59655200E-19
  0.221249998       2.93156609E-19
  0.222499996       2.91302251E-19
  0.223749995       2.49209046E-19
  0.224999994       1.66909977E-19
  0.226249993       5.00085869E-20
  0.227500007      -9.03625414E-20
  0.228750005      -2.38360805E-19
  0.230000004      -3.75007992E-19
  0.231250003      -4.80391293E-19
  0.232500002      -5.36259330E-19
  0.233750001      -5.28701019E-19
  0.234999999      -4.50551166E-19
  0.236249998      -3.03163452E-19
  0.237499997      -9.72413947E-20
  0.238749996       1.47486536E-19
  0.239999995       4.03830480E-19
  0.241249993       6.39864839E-19
  0.242500007       8.22578076E-19
  0.243750006       9.22063399E-19
  0.245000005       9.15759455E-19
  0.246250004       7.92190769E-19
  0.247500002       5.53673291E-19
  0.248750001       2.17529683E-19
  0.250000000      -1.84497207E-19
  0.251249999      -6.08742272E-19
  0.252499998      -1.00390703E-18
  0.253749996      -1.31678106E-18
  0.254999995      -1.49881891E-18
  0.256249994      -1.51283021E-18
  0.257499993      -1.33895209E-18
  0.258749992      -9.79063691E-19
  0.259999990      -4.58921303E-19
  0.261249989       1.72518352E-19
  0.262499988       8.46813072E-19
  0.263749987       1.48267193E-18
  0.264999986       1.99500516E-18
  0.266250014       2.30551677E-18
  0.267500013       2.35365785E-18
  0.268750012       2.10656763E-18
  0.270000011       1.56656944E-18
  0.271250010       7.74920065E-19
  0.272500008      -1.89177331E-19
  0.273750007      -1.21479238E-18
  0.275000006      -2.17059410E-18
  0.276250005      -2.92043394E-18
  0.277500004      -3.34163307E-18
  0.278750002      -3.34380504E-18
  0.280000001      -2.88564293E-18
  0.281250000      -1.98697076E-18
  0.282499999      -7.33636773E-19
  0.283749998       7.26555745E-19
  0.284999996       2.19764146E-18
  0.286249995       3.45846034E-18
  0.287499994       4.29281013E-18
  0.288749993       4.52334329E-18
  0.289999992       4.04464643E-18
  0.291249990       2.85027890E-18
  0.292499989       1.04856723E-18
  0.293749988      -1.13719105E-18
  0.294999987      -3.38677873E-18
  0.296249986      -5.31965022E-18
  0.297500014      -6.54745467E-18
  0.298750013      -6.73686910E-18
  0.300000012      -5.67450656E-18
  0.301250011      -3.32379885E-18
  0.302500010       1.36764957E-19
  0.303750008       4.30365860E-18
  0.305000007       8.57339783E-18
  0.306250006       1.22050996E-17
  0.307500005       1.44174206E-17
  0.308750004       1.45105694E-17
  0.310000002       1.19984475E-17
  0.311250001       6.73152221E-18
  0.312500000      -1.01111477E-18
  0.313749999      -1.04810343E-17
  0.314999998      -2.04873414E-17
  0.316249996      -2.94995867E-17
  0.317499995      -3.58246464E-17
  0.318749994      -3.78436983E-17
  0.319999993      -3.42830464E-17
  0.321249992      -2.44827892E-17
  0.322499990      -8.62127256E-18
  0.323749989       1.21479414E-17
  0.324999988       3.56833275E-17
  0.326249987       5.89915964E-17
  0.327499986       7.85186770E-17
  0.328750014       9.05789770E-17
  0.330000013       9.18826467E-17
  0.331250012       8.00985325E-17
  0.332500011       5.43749624E-17
  0.333750010       1.57339381E-17
  0.335000008      -3.27413472E-17
  0.336250007      -8.59879790E-17
  0.337500006      -1.37346512E-16
  0.338750005      -1.79239371E-16
  0.340000004      -2.04094839E-16
  0.341250002      -2.05421927E-16
  0.342500001      -1.78906792E-16
  0.343750000      -1.23376834E-16
  0.344999999      -4.14755010E-17
  0.346249998       6.00919650E-17
  0.347499996       1.70840960E-16
  0.348749995       2.77358080E-16
  0.349999994       3.64683736E-16
  0.351249993       4.18113092E-16
  0.352499992       4.25227295E-16
  0.353749990       3.77907138E-16
  0.354999989       2.74052481E-16
  0.356249988       1.18732486E-16
  0.357499987      -7.54661688E-17
  0.358749986      -2.89048802E-16
  0.360000014      -4.97223375E-16
  0.361250013      -6.72428275E-16
  0.362500012      -7.87559641E-16
  0.363750011      -8.19558375E-16
  0.365000010      -7.52928963E-16
  0.366250008      -5.82721504E-16
  0.367500007      -3.16517234E-16
  0.368750006       2.49550382E-17
  0.370000005       4.08819102E-16
  0.371250004       7.92723736E-16
  0.372500002       1.12904156E-15
  0.373750001       1.37022498E-15
  0.375000000       1.47477372E-15
  0.376249999       1.41311692E-15
  0.377499998       1.17266703E-15
  0.378749996       7.61308290E-16
  0.379999995       2.08730570E-16
  0.381249994      -4.34796253E-16
  0.382499993      -1.10231089E-15
  0.383749992      -1.71651004E-15
  0.384999990      -2.19801916E-15
  0.386249989      -2.47476409E-15
  0.387499988      -2.49141041E-15
  0.388749987      -2.21772030E-15
  0.389999986      -1.65472174E-15
  0.391250014      -8.37730514E-16
  0.392500013       1.64425427E-16
  0.393750012       1.25424118E-15
  0.395000011       2.31422128E-15
  0.396250010       3.21872943E-15
  0.397500008       3.84789365E-15
  0.398750007       4.10209290E-15
  0.400000006       3.91539159E-15
  0.401250005       3.26625158E-15
  0.402500004       2.18404438E-15
  0.403750002       7.50260809E-16
  0.405000001      -9.06180305E-16
  0.406250000      -2.61945278E-15
  0.407499999      -4.20245402E-15
  0.408749998      -5.46616831E-15
  0.409999996      -6.24084855E-15
  0.411249995      -6.39675555E-15
  0.412499994      -5.86206727E-15
  0.413749993      -4.63570629E-15
  0.414999992      -2.79325123E-15
  0.416249990      -4.84729745E-16
  0.417499989       2.07607881E-15
  0.418749988       4.63027003E-15
  0.419999987       6.89888557E-15
  0.421249986       8.61211516E-15
  0.422500014       9.53966706E-15
  0.423750013       9.51904774E-15
  0.425000012       8.47842033E-15
  0.426250011       6.45115455E-15
  0.427500010       3.57985643E-15
  0.428750008       1.08680945E-16
  0.430000007      -3.63600793E-15
  0.431250006      -7.27532692E-15
  0.432500005      -1.04153052E-14
  0.433750004      -1.26884799E-14
  0.435000002      -1.37953164E-14
  0.436250001      -1.35409160E-14
  0.437500000      -1.18626295E-14
  0.438749999      -8.84498993E-15
  0.439999998      -4.71957187E-15
  0.441249996       1.51175860E-16
  0.442499995       5.30520198E-15
  0.443749994       1.02246982E-14
  0.444999993       1.43883522E-14
  0.446249992       1.73267027E-14
  0.447499990       1.86746574E-14
  0.448749989       1.82152267E-14
  0.449999988       1.59092422E-14
  0.451249987       1.19071258E-14
  0.452499986       6.54066475E-15
  0.453750014       2.94836843E-16
  0.455000013      -6.23788563E-15
  0.456250012      -1.24163197E-14
  0.457500011      -1.76163761E-14
  0.458750010      -2.12967088E-14
  0.460000008      -2.30569500E-14
  0.461250007      -2.26818449E-14
  0.462500006      -2.01660859E-14
  0.463750005      -1.57168573E-14
  0.465000004      -9.73345973E-15
  0.466250002      -2.76629737E-15
  0.467500001       4.54020121E-15
  0.468750000       1.15141991E-14
  0.469999999       1.75248745E-14
  0.471249998       2.20448321E-14
  0.472499996       2.46993520E-14
  0.473749995       2.52972607E-14
  0.474999994       2.38403589E-14
  0.476249993       2.05113653E-14
  0.477499992       1.56429316E-14
  0.478749990       9.67282996E-15
  0.479999989       3.09199742E-15
  0.481249988      -3.60725837E-15
  0.482499987      -9.97583313E-15
  0.483749986      -1.56397688E-14
  0.485000014      -2.03163343E-14
  0.486250013      -2.38138790E-14
  0.487500012      -2.60179079E-14
  0.488750011      -2.68683493E-14
  0.490000010      -2.63345152E-14
  0.491250008      -2.43947945E-14
  0.492500007      -2.10273507E-14
  0.493750006      -1.62158884E-14
  0.495000005      -9.97168521E-15
  0.496250004      -2.36938769E-15
  0.497500002       6.40937803E-15
  0.498750001       1.60334579E-14
  0.500000000       2.59912128E-14
  0.501250029       3.55815129E-14
  0.502499998       4.39353787E-14
  0.503750026       5.00729558E-14
  0.504999995       5.29955650E-14
  0.506250024       5.18065307E-14
  0.507499993       4.58485179E-14
  0.508750021       3.48403015E-14
  0.509999990       1.89926251E-14
  0.511250019      -9.17359764E-16
  0.512499988      -2.35313935E-14
  0.513750017      -4.69674213E-14
  0.514999986      -6.89535709E-14
  0.516250014      -8.70328115E-14
  0.517499983      -9.88222159E-14
  0.518750012      -1.02301380E-13
  0.519999981      -9.60963148E-14
  0.521250010      -7.97225174E-14
  0.522499979      -5.37511591E-14
  0.523750007      -1.98679709E-14
  0.524999976       1.91946068E-14
  0.526250005       5.98580633E-14
  0.527499974       9.80201570E-14
  0.528750002       1.29472130E-13
  0.529999971       1.50368514E-13
  0.531250000       1.57696989E-13
  0.532500029       1.49691200E-13
  0.533749998       1.26130849E-13
  0.535000026       8.84834401E-14
  0.536249995       3.98577147E-14
  0.537500024      -1.52398134E-14
  0.538749993      -7.13303995E-14
  0.540000021      -1.22531054E-13
  0.541249990      -1.63206444E-13
  0.542500019      -1.88629629E-13
  0.543749988      -1.95572332E-13
  0.545000017      -1.82748361E-13
  0.546249986      -1.51046344E-13
  0.547500014      -1.03513294E-13
  0.548749983      -4.50762305E-14
  0.550000012       1.79764396E-14
  0.551249981       7.87013548E-14
  0.552500010       1.30315274E-13
  0.553749979       1.67021846E-13
  0.555000007       1.84746044E-13
  0.556249976       1.81679162E-13
  0.557500005       1.58555840E-13
  0.558749974       1.18616217E-13
  0.560000002       6.72437095E-14
  0.561249971       1.13103005E-14
  0.562500000      -4.16973788E-14
  0.563750029      -8.46672518E-14
  0.564999998      -1.11840536E-13
  0.566250026      -1.19648960E-13
  0.567499995      -1.07290885E-13
  0.568750024      -7.69550981E-14
  0.569999993      -3.36416347E-14
  0.571250021       1.54193912E-14
  0.572499990       6.16971277E-14
  0.573750019       9.65327061E-14
  0.574999988       1.12412263E-13
  0.576250017       1.04172869E-13
  0.577499986       6.99722127E-14
  0.578750014       1.18724712E-14
  0.579999983      -6.40725537E-14
  0.581250012      -1.48277929E-13
  0.582499981      -2.28619559E-13
  0.583750010      -2.91870369E-13
  0.584999979      -3.25427754E-13
  0.586250007      -3.19129163E-13
  0.587499976      -2.66925127E-13
  0.588750005      -1.68178134E-13
  0.589999974      -2.83862323E-14
  0.591250002       1.40815311E-13
  0.592499971       3.22439639E-13
  0.593750000       4.95693059E-13
  0.595000029       6.38154460E-13
  0.596249998       7.28374392E-13
  0.597500026       7.48610050E-13
  0.598749995       6.87374040E-13
  0.600000024       5.41469159E-13
  0.601249993       3.17219585E-13
  0.602500021       3.06826233E-14
  0.603749990      -2.93268827E-13
  0.605000019      -6.22978015E-13
  0.606249988      -9.22999849E-13
  0.607500017      -1.15778827E-12
  0.608749986      -1.29569792E-12
  0.610000014      -1.31286366E-12
  0.611249983      -1.19650145E-12
  0.612500012      -9.47212794E-13
  0.613749981      -5.79957631E-13
  0.615000010      -1.23499193E-13
  0.616249979       3.81727609E-13
  0.617500007       8.87177538E-13
  0.618749976       1.34088411E-12
  0.620000005       1.69282264E-12
  0.621249974       1.90038783E-12
  0.622500002       1.93339008E-12
  0.623749971       1.77798694E-12
  0.625000000       1.43906382E-12
  0.626250029       9.40720809E-13
  0.627499998       3.24711151E-13
  0.628750026      -3.53084315E-13
  0.629999995      -1.02786410E-12
  0.631250024      -1.63229543E-12
  0.632499993      -2.10344155E-12
  0.633750021      -2.38949724E-12
  0.634999990      -2.45559367E-12
  0.636250019      -2.28800616E-12
  0.637499988      -1.89626244E-12
  0.638750017      -1.31284415E-12
  0.639999986      -5.90448697E-13
  0.641250014       2.02962864E-13
  0.642499983       9.90860389E-13
  0.643750012       1.69588898E-12
  0.644999981       2.24786205E-12
  0.646250010       2.59112848E-12
  0.647499979       2.69051816E-12
  0.648750007       2.53518929E-12
  0.649999976       2.13993536E-12
  0.651250005       1.54377845E-12
  0.652499974       8.05975078E-13
  0.653750002      -1.45071399E-16
  0.654999971      -7.94854308E-13
  0.656250000      -1.50037177E-12
  0.657500029      -2.04897210E-12
  0.658749998      -2.38996258E-12
  0.660000026      -2.49476178E-12
  0.661249995      -2.35953856E-12
  0.662500024      -2.00512653E-12
  0.663749993      -1.47426179E-12
  0.665000021      -8.26483250E-13
  0.666249990      -1.31302155E-13
  0.667500019       5.39558144E-13
  0.668749988       1.11995092E-12
  0.670000017       1.55624656E-12
  0.671249986       1.81264107E-12
  0.672500014       1.87427092E-12
  0.673749983       1.74784156E-12
  0.675000012       1.45977501E-12
  0.676249981       1.05217929E-12
  0.677500010       5.77208312E-13
  0.678749979       9.05410322E-14
  0.680000007      -3.55189592E-13
  0.681249976      -7.16222708E-13
  0.682500005      -9.62056932E-13
  0.683749974      -1.07795630E-12
  0.685000002      -1.06533478E-12
  0.686249971      -9.40120811E-13
  0.687500000      -7.29428074E-13
  0.688750029      -4.67088716E-13
  0.689999998      -1.88730555E-13
  0.691250026       7.28953370E-14
  0.692499995       2.91692750E-13
  0.693750024       4.50630120E-13
  0.694999993       5.42545718E-13
  0.696250021       5.69339172E-13
  0.697499990       5.39840796E-13
  0.698750019       4.66824713E-13
  0.699999988       3.63767068E-13
  0.701250017       2.41993925E-13
  0.702499986       1.08767731E-13
  0.703750014      -3.33030214E-14
  0.704999983      -1.85384775E-13
  0.706250012      -3.50236767E-13
  0.707499981      -5.29121289E-13
  0.708750010      -7.18459526E-13
  0.709999979      -9.06975341E-13
  0.711250007      -1.07409351E-12
  0.712499976      -1.19019215E-12
  0.713750005      -1.21909069E-12
  0.714999974      -1.12274177E-12
  0.716250002      -8.67760453E-13
  0.717499971      -4.32979038E-13
  0.718750000       1.83079395E-13
  0.720000029       9.56076798E-13
  0.721249998       1.83240380E-12
  0.722500026       2.72945577E-12
  0.723749995       3.54038131E-12
  0.725000024       4.14341001E-12
  0.726249993       4.41527847E-12
  0.727500021       4.24756627E-12
  0.728749990       3.56414789E-12
  0.730000019       2.33753511E-12
  0.731249988       6.01711769E-13
  0.732500017      -1.54082563E-12
  0.733749986      -3.91968662E-12
  0.735000014      -6.30593234E-12
  0.736249983      -8.43028598E-12
  0.737500012      -1.00091454E-11
  0.738749981      -1.07762696E-11
  0.740000010      -1.05169701E-11
  0.741249979      -9.10092141E-12
  0.742500007      -6.50945010E-12
  0.743749976      -2.85322742E-12
  0.745000005       1.62289084E-12
  0.746249974       6.55007212E-12
  0.747500002       1.14613093E-11
  0.748749971       1.58316225E-11
  0.750000000       1.91296198E-11
  0.751250029       2.08756901E-11
  0.752499998       2.07008577E-11
  0.753750026       1.83997210E-11
  0.754999995       1.39706554E-11
  0.756250024       7.63774460E-12
  0.757499993      -1.50051114E-13
  0.758750021      -8.74442532E-12
  0.759999990      -1.73475088E-11
  0.761250019      -2.50824986E-11
  0.762499988      -3.10793023E-11
  0.763750017      -3.45670437E-11
  0.764999986      -3.49639345E-11
  0.766250014      -3.19544564E-11
  0.767499983      -2.55446948E-11
  0.768750012      -1.60878810E-11
  0.769999981      -4.27535958E-12
  0.771250010       8.90867935E-12
  0.772499979       2.22664213E-11
  0.773750007       3.44935920E-11
  0.774999976       4.43051498E-11
  0.776250005       5.05673108E-11
  0.777499974       5.24226357E-11
  0.778750002       4.93945267E-11
  0.779999971       4.14589925E-11
  0.781250000       2.90744789E-11
  0.782500029       1.31641477E-11
  0.783749998      -4.95000525E-12
  0.785000026      -2.36568681E-11
  0.786249995      -4.12007789E-11
  0.787500024      -5.58477986E-11
  0.788749993      -6.60575136E-11
  0.790000021      -7.06434841E-11
  0.791249990      -6.89051732E-11
  0.792500019      -6.07171674E-11
  0.793749988      -4.65648908E-11
  0.795000017      -2.75213099E-11
  0.796249986      -5.16494443E-12
  0.797500014       1.85545052E-11
  0.798749983       4.14912132E-11
  0.800000012       6.15024698E-11
  0.801249981       7.66533573E-11
  0.802500010       8.54064180E-11
  0.803749979       8.67774394E-11
  0.805000007       8.04414452E-11
  0.806249976       6.67773753E-11
  0.807500005       4.68461971E-11
  0.808749974       2.23037457E-11
  0.810000002      -4.74423755E-12
  0.811249971      -3.19313638E-11
  0.812500000      -5.68461077E-11
  0.813750029      -7.72532871E-11
  0.814999998      -9.12999468E-11
  0.816250026      -9.76864700E-11
  0.817499995      -9.57863650E-11
  0.818750024      -8.57035831E-11
  0.819999993      -6.82626594E-11
  0.821250021      -4.49327554E-11
  0.822499990      -1.76938776E-11
  0.823750019       1.11420196E-11
  0.824999988       3.91372143E-11
  0.826250017       6.39426428E-11
  0.827499986       8.35006717E-11
  0.828750014       9.62178323E-11
  0.829999983       1.01093335E-10
  0.831250012       9.77924269E-11
  0.832499981       8.66606301E-11
  0.833750010       6.86792914E-11
  0.834999979       4.53687574E-11
  0.836250007       1.86497952E-11
  0.837499976      -9.32303193E-12
  0.838750005      -3.63405903E-11
  0.839999974      -6.03157524E-11
  0.841250002      -7.94426330E-11
  0.842499971      -9.23266949E-11
  0.843750000      -9.80779208E-11
  0.845000029      -9.63610997E-11
  0.846249998      -8.74035774E-11
  0.847500026      -7.19613188E-11
  0.848749995      -5.12499244E-11
  0.850000024      -2.68462075E-11
  0.851249993      -5.70296089E-13
  0.852500021       2.56448439E-11
  0.853749990       4.98856512E-11
  0.855000019       7.03875985E-11
  0.856249988       8.56514512E-11
  0.857500017       9.45429846E-11
  0.858749986       9.63714317E-11
  0.860000014       9.09405468E-11
  0.861249983       7.85713786E-11
  0.862500012       6.00937911E-11
  0.863749981       3.68047121E-11
  0.865000010       1.03947892E-11
  0.866249979      -1.71565956E-11
  0.867500007      -4.37134738E-11
  0.868749976      -6.71333544E-11
  0.870000005      -8.54351589E-11