 -0.200000003       0.00000000    
 -0.198750004       0.00000000    
 -0.197500005       0.00000000    
 -0.196250007       0.00000000    
 -0.194999993       0.00000000    
 -0.193749994       0.00000000    
 -0.192499995       0.00000000    
 -0.191249996       0.00000000    
 -0.189999998       0.00000000    
 -0.188749999       0.00000000    
 -0.187500000      -9.50108385E-41
 -0.186250001      -1.64797604E-39
 -0.185000002      -1.47411161E-38
 -0.183750004      -9.07072603E-38
 -0.182500005      -4.32816658E-37
 -0.181250006      -1.71476081E-36
 -0.180000007      -5.90886873E-36
 -0.178749993      -1.83375540E-35
 -0.177499995      -5.26401581E-35
 -0.176249996      -1.42450205E-34
 -0.174999997      -3.67353625E-34
 -0.173749998      -9.05814365E-34
 -0.172499999      -2.13128440E-33
 -0.171250001      -4.76205545E-33
 -0.170000002      -1.00476313E-32
 -0.168750003      -1.99102676E-32
 -0.167500004      -3.68567261E-32
 -0.166250005      -6.33617610E-32
 -0.165000007      -1.00388323E-31
 -0.163749993      -1.44903365E-31
 -0.162499994      -1.86859368E-31
 -0.161249995      -2.07253760E-31
 -0.159999996      -1.80404964E-31
 -0.158749998      -8.48647853E-32
 -0.157499999       7.28358987E-32
 -0.156250000       2.20894432E-31
 -0.155000001       1.79075750E-31
 -0.153750002      -3.68995506E-31
 -0.152500004      -1.85048126E-30
 -0.151250005      -4.67541951E-30
 -0.150000006      -8.96113762E-30
 -0.148750007      -1.40990590E-29
 -0.147499993      -1.82317948E-29
 -0.146249995      -1.78286525E-29
 -0.144999996      -7.68776089E-30
 -0.143749997       1.82009784E-29
 -0.142499998       6.45101249E-29
 -0.141249999       1.30953823E-28
 -0.140000001       2.07525259E-28
 -0.138750002       2.69751646E-28
 -0.137500003       2.76121732E-28
 -0.136250004       1.70698060E-28
 -0.135000005      -1.05840732E-28
 -0.133750007      -5.94450026E-28
 -0.132499993      -1.28564914E-27
 -0.131249994      -2.08202368E-27
 -0.129999995      -2.76603233E-27
 -0.128749996      -2.98963896E-27
 -0.127499998      -2.30572930E-27
 -0.126249999      -2.59450039E-28
 -0.125000000       3.45225138E-27
 -0.123750001       8.76403280E-27
 -0.122500002       1.50076057E-26
 -0.121250004       2.07300243E-26
 -0.119999997       2.36620138E-26
 -0.118749999       2.09423727E-26
 -0.117500000       9.68216521E-27
 -0.116250001      -1.21112320E-26
 -0.115000002      -4.43373140E-26
 -0.113750003      -8.35591978E-26
 -0.112499997      -1.22083658E-25
 -0.111249998      -1.47837501E-25
 -0.109999999      -1.45522638E-25
 -0.108750001      -9.93953524E-26
 -0.107500002       2.29888474E-27
 -0.106250003       1.61688506E-25
 -0.104999997       3.65481230E-25
 -0.103749998       5.80627609E-25
 -0.102499999       7.53431387E-25
 -0.101250000       8.14065159E-25
 -0.100000001       6.87841005E-25
  -9.87500027E-02   3.13309840E-25
  -9.74999964E-02  -3.34614014E-25
  -9.62499976E-02  -1.22052037E-24
  -9.49999988E-02  -2.22945641E-24
  -9.37500000E-02  -3.16036335E-24
  -9.25000012E-02  -3.73924999E-24
  -9.12500024E-02  -3.65719584E-24
  -9.00000036E-02  -2.63386674E-24
  -8.87499973E-02  -5.00848578E-25
  -8.74999985E-02   2.70835927E-24
  -8.62499997E-02   6.68181595E-24
  -8.50000009E-02   1.07907297E-23
  -8.37500021E-02   1.41137818E-23
  -8.25000033E-02   1.55425257E-23
  -8.12499970E-02   1.39730317E-23
  -7.99999982E-02   8.56963662E-24
  -7.87499994E-02  -9.36049038E-25
  -7.75000006E-02  -1.39694881E-23
  -7.62500018E-02  -2.89346702E-23
  -7.50000030E-02  -4.32089347E-23
  -7.37499967E-02  -5.33726312E-23
  -7.24999979E-02  -5.57007554E-23
  -7.12499991E-02  -4.68916719E-23
  -7.00000003E-02  -2.49452444E-23
  -6.87500015E-02   9.95995821E-24
  -6.75000027E-02   5.47879045E-23
  -6.62499964E-02   1.03379079E-22
  -6.49999976E-02   1.46784371E-22
  -6.37499988E-02   1.74308498E-22
  -6.25000000E-02   1.75247760E-22
  -6.12500012E-02   1.41149178E-22
  -5.99999987E-02   6.82543029E-23
  -5.87499999E-02  -4.03448300E-23
  -5.75000010E-02  -1.73379119E-22
  -5.62499985E-02  -3.11416184E-22
  -5.49999997E-02  -4.28576089E-22
  -5.37500009E-02  -4.96043260E-22
  -5.24999984E-02  -4.87112345E-22
  -5.12499996E-02  -3.83114704E-22
  -5.00000007E-02  -1.79221688E-22
  -4.87499982E-02   1.11101845E-22
  -4.74999994E-02   4.54238529E-22
  -4.62500006E-02   7.98159922E-22
  -4.50000018E-02   1.07826588E-21
  -4.37499993E-02   1.22709083E-21
  -4.25000004E-02   1.18679930E-21
  -4.12500016E-02   9.22575681E-22
  -3.99999991E-02   4.34415022E-22
  -3.87500003E-02  -2.35401900E-22
  -3.75000015E-02  -1.00156638E-21
  -3.62499990E-02  -1.74329788E-21
  -3.50000001E-02  -2.32040540E-21
  -3.37500013E-02  -2.59637878E-21
  -3.24999988E-02  -2.46531528E-21
  -3.12500000E-02  -1.87806451E-21
  -2.99999993E-02  -8.62222496E-22
  -2.87500005E-02   4.69206641E-22
  -2.74999999E-02   1.92436946E-21
  -2.62499992E-02   3.25590002E-21
  -2.50000004E-02   4.19947884E-21
  -2.37499997E-02   4.52267826E-21
  -2.25000009E-02   4.07613240E-21
  -2.12500002E-02   2.83709743E-21
  -1.99999996E-02   9.35160398E-22
  -1.87500007E-02  -1.34841759E-21
  -1.75000001E-02  -3.61243748E-21
  -1.62499994E-02  -5.39780101E-21
  -1.49999997E-02  -6.27271173E-21
  -1.37499999E-02  -5.92777579E-21
  -1.25000002E-02  -4.26318023E-21
  -1.12500004E-02  -1.44833802E-21
  -9.99999978E-03   2.06373465E-21
  -8.75000004E-03   5.57918298E-21
  -7.49999983E-03   8.26567740E-21
  -6.25000009E-03   9.30509042E-21
  -4.99999989E-03   8.07505912E-21
  -3.74999992E-03   4.32778312E-21
  -2.49999994E-03  -1.67143233E-21
  -1.24999997E-03  -9.08285591E-21
   0.00000000      -1.65372388E-20
   1.24999997E-03  -2.23006342E-20
   2.49999994E-03  -2.45517820E-20
   3.74999992E-03  -2.17409044E-20
   4.99999989E-03  -1.29763514E-20
   6.25000009E-03   1.63100276E-21
   7.49999983E-03   2.07420305E-20
   8.75000004E-03   4.17517540E-20
   9.99999978E-03   6.09878585E-20
   1.12500004E-02   7.41586225E-20
   1.25000002E-02   7.70196916E-20
   1.37499999E-02   6.61824688E-20
   1.49999997E-02   3.99452465E-20
   1.62499994E-02  -9.99480052E-22
   1.75000001E-02  -5.31349451E-20
   1.87500007E-02  -1.10101152E-19
   1.99999996E-02  -1.63174236E-19
   2.12500002E-02  -2.02260601E-19
   2.25000009E-02  -2.17335916E-19
   2.37499997E-02  -2.00169320E-19
   2.50000004E-02  -1.46094158E-19
   2.62499992E-02  -5.55355815E-20
   2.74999999E-02   6.50072261E-20
   2.87500005E-02   2.02789428E-19
   2.99999993E-02   3.39637800E-19
   3.12500000E-02   4.53803743E-19
   3.24999988E-02   5.22738701E-19
   3.37500013E-02   5.26509404E-19
   3.50000001E-02   4.51420378E-19
   3.62499990E-02   2.93305501E-19
   3.75000015E-02   5.99140489E-20
   3.87500003E-02  -2.28133750E-19
   3.99999991E-02  -5.38208116E-19
   4.12500016E-02  -8.28513252E-19
   4.25000004E-02  -1.05279826E-18
   4.37499993E-02  -1.16651657E-18
   4.50000018E-02  -1.13373013E-18
   4.62500006E-02  -9.33834489E-19
   4.74999994E-02  -5.67072428E-19
   4.87499982E-02  -5.78303227E-20
   5.00000007E-02   5.45101270E-19
   5.12499996E-02   1.17179088E-18
   5.24999984E-02   1.73798815E-18
   5.37500009E-02   2.15502284E-18
   5.49999997E-02   2.34178016E-18
   5.62499985E-02   2.23731449E-18
   5.75000010E-02   1.81237319E-18
   5.87499999E-02   1.07802892E-18
   5.99999987E-02   8.97982426E-20
   6.12500012E-02  -1.05394422E-18
   6.25000000E-02  -2.21978384E-18
   6.37499988E-02  -3.25302528E-18
   6.49999976E-02  -3.99622080E-18
   6.62499964E-02  -4.31047622E-18
   6.75000027E-02  -4.09689860E-18
   6.87500015E-02  -3.31521933E-18
   7.00000003E-02  -1.99664712E-18
   7.12499991E-02  -2.48474122E-19
   7.24999979E-02   1.75119140E-18
   7.37499967E-02   3.76900297E-18
   7.50000030E-02   5.54132097E-18
   7.62500018E-02   6.80617691E-18
   7.75000006E-02   7.33866202E-18
   7.87499994E-02   6.98528219E-18
   7.99999982E-02   5.69247045E-18
   8.12499970E-02   3.52471668E-18
   8.25000033E-02   6.68736234E-19
   8.37500021E-02  -2.57837801E-18
   8.50000009E-02  -5.83708519E-18
   8.62499997E-02  -8.68727496E-18
   8.74999985E-02  -1.07198298E-17
   8.87499973E-02  -1.15918618E-17
   9.00000036E-02  -1.10784961E-17
   9.12500024E-02  -9.11387433E-18
   9.25000012E-02  -5.81479805E-18
   9.37500000E-02  -1.48218596E-18
   9.49999988E-02   3.42189068E-18
   9.62499976E-02   8.32071483E-18
   9.74999964E-02   1.25887914E-17
   9.87500027E-02   1.56298788E-17
  0.100000001       1.69576956E-17
  0.101250000       1.62686359E-17
  0.102499999       1.34960324E-17
  0.103749998       8.83711376E-18
  0.104999997       2.74690117E-18
  0.106250003      -4.10272071E-18
  0.107500002      -1.08958381E-17
  0.108750001      -1.67697436E-17
  0.109999999      -2.09251400E-17
  0.111249998      -2.27352725E-17
  0.112499997      -2.18390521E-17
  0.113750003      -1.82044156E-17
  0.115000002      -1.21513394E-17
  0.116250001      -4.32877387E-18
  0.117500000       4.35417080E-18
  0.118749999       1.28360638E-17
  0.119999997       2.00374015E-17
  0.121250004       2.50041479E-17
  0.122500002       2.70410868E-17
  0.123750001       2.58157643E-17
  0.125000000       2.14168509E-17
  0.126249999       1.43563168E-17
  0.127499998       5.51225178E-18
  0.128749996      -3.98240564E-18
  0.129999995      -1.28918208E-17
  0.131249994      -2.00497579E-17
  0.132499993      -2.45282941E-17
  0.133750007      -2.57775568E-17
  0.135000005      -2.37141498E-17
  0.136250004      -1.87423228E-17
  0.137500003      -1.17011290E-17
  0.138750002      -3.74176391E-18
  0.140000001       3.84977054E-18
  0.141249999       9.85992673E-18
  0.142499998       1.33536779E-17
  0.143749997       1.38461043E-17
  0.144999996       1.14090921E-17
  0.146249995       6.69056229E-18
  0.147499993       8.35709051E-19
  0.148750007      -4.68551329E-18
  0.150000006      -8.32491360E-18
  0.151250005      -8.74296820E-18
  0.152500004      -5.09247085E-18
  0.153750002       2.74889033E-18
  0.155000001       1.40420328E-17
  0.156250000       2.71808737E-17
  0.157499999       3.98356915E-17
  0.158749998       4.92421578E-17
  0.159999996       5.26092561E-17
  0.161249995       4.75972529E-17
  0.162499994       3.27995973E-17
  0.163749993       8.15326535E-18
  0.165000007      -2.47971096E-17
  0.166250005      -6.28437633E-17
  0.167500004      -1.01308555E-16
  0.168750003      -1.34491693E-16
  0.170000002      -1.56347591E-16
  0.171250001      -1.61321461E-16
  0.172499999      -1.45248032E-16
  0.173749998      -1.06191495E-16
  0.174999997      -4.50976752E-17
  0.176249996       3.38610255E-17
  0.177499995       1.23340239E-16
  0.178749993       2.13326426E-16
  0.180000007       2.92080915E-16
  0.181250006       3.47456541E-16
  0.182500005       3.68458670E-16
  0.183750004       3.46872883E-16
  0.185000002       2.78749940E-16
  0.186250001       1.65532195E-16
  0.187500000       1.46258502E-17
  0.188749999      -1.60726447E-16
  0.189999998      -3.42344433E-16
  0.191249996      -5.08759381E-16
  0.192499995      -6.37492984E-16
  0.193749994      -7.07749761E-16
  0.194999993      -7.03228458E-16
  0.196250007      -6.14709227E-16
  0.197500005      -4.42064139E-16
  0.198750004      -1.95371299E-16
  0.200000003       1.05107279E-16
  0.201250002       4.30208404E-16
  0.202500001       7.44389601E-16
  0.203749999       1.00931218E-15
  0.204999998       1.18815694E-15
  0.206249997       1.25022021E-15
  0.207499996       1.17525525E-15
  0.208749995       9.57004929E-16
  0.209999993       6.05413517E-16
  0.211250007       1.47117698E-16
  0.212500006      -3.76010948E-16
  0.213750005      -9.10285662E-16
  0.215000004      -1.39536301E-15
  0.216250002      -1.77068585E-15
  0.217500001      -1.98256066E-15
  0.218750000      -1.99108181E-15
  0.219999999      -1.77606927E-15
  0.221249998      -1.34122183E-15
  0.222499996      -7.15841043E-16
  0.223749995       4.62902381E-17
  0.224999994       8.70987621E-16
  0.226249993       1.67047200E-15
  0.227500007       2.35233289E-15
  0.228750005       2.82977508E-15
  0.230000004       3.03205502E-15
  0.231250003       2.91390049E-15
  0.232500002       2.46273961E-15
  0.233750001       1.70272289E-15
  0.234999999       6.94824250E-16
  0.236249998      -4.67287219E-16
  0.237499997      -1.66544486E-15
  0.238749996      -2.76860469E-15
  0.239999995      -3.64679320E-15
  0.241249993      -4.18594365E-15
  0.242500007      -4.30196811E-15
  0.243750006      -3.95239846E-15
  0.245000005      -3.14407915E-15
  0.246250004      -1.93576442E-15
  0.247500002      -4.34974553E-16
  0.248750001       1.21091227E-15
  0.250000000       2.82868855E-15
  0.251249999       4.23719380E-15
  0.252499998       5.26723796E-15
  0.253749996       5.78142253E-15
  0.254999995       5.69158961E-15
  0.256249994       4.97175263E-15
  0.257499993       3.66476089E-15
  0.258749992       1.88155939E-15
  0.259999990      -2.07314940E-16
  0.261249989      -2.38748455E-15
  0.262499988      -4.42235648E-15
  0.263749987      -6.07849097E-15
  0.264999986      -7.15203873E-15
  0.266250014      -7.49328967E-15
  0.267500013      -7.02643688E-15
  0.268750012      -5.76203819E-15
  0.270000011      -3.80037214E-15
  0.271250010      -1.32480654E-15
  0.272500008       1.41458049E-15
  0.273750007       4.12577594E-15
  0.275000006       6.50561580E-15
  0.276250005       8.27337568E-15
  0.277500004       9.20348985E-15
  0.278750002       9.15363095E-15
  0.280000001       8.08472026E-15
  0.281250000       6.07020105E-15
  0.282499999       3.29300385E-15
  0.283749998       2.99625266E-17
  0.284999996      -3.37513597E-15
  0.286249995      -6.54732667E-15
  0.287499994      -9.12139881E-15
  0.288749993      -1.07835570E-14
  0.289999992      -1.13090969E-14
  0.291249990      -1.05916295E-14
  0.292499989      -8.66015040E-15
  0.293749988      -5.68147731E-15
  0.294999987      -1.94715341E-15
  0.296249986       2.15435059E-15
  0.297500014       6.17758874E-15
  0.298750013       9.66819076E-15
  0.300000012       1.22138704E-14
  0.301250011       1.34926834E-14
  0.302500010       1.33129286E-14
  0.303750008       1.16398090E-14
  0.305000007       8.60528130E-15
  0.306250006       4.49934076E-15
  0.307500005      -2.56988287E-16
  0.308750004      -5.15454658E-15
  0.310000002      -9.65050980E-15
  0.311250001      -1.32286243E-14
  0.312500000      -1.54585410E-14
  0.313749999      -1.60474136E-14
  0.314999998      -1.48775882E-14
  0.316249996      -1.20255843E-14
  0.317499995      -7.75957057E-15
  0.318749994      -2.51487661E-15
  0.319999993       3.15034698E-15
  0.321249992       8.61488920E-15
  0.322499990       1.32632739E-14
  0.323749989       1.65559586E-14
  0.324999988       1.80928914E-14
  0.326249987       1.76628782E-14
  0.327499986       1.52726444E-14
  0.328750014       1.11515970E-14
  0.330000013       5.73103212E-15
  0.331250012      -4.00556216E-16
  0.332500011      -6.56155767E-15
  0.333750010      -1.20538159E-14
  0.335000008      -1.62431036E-14
  0.336250007      -1.86341997E-14
  0.337500006      -1.89316201E-14
  0.338750005      -1.70784543E-14
  0.340000004      -1.32681299E-14
  0.341250002      -7.92692396E-15
  0.342500001      -1.66848868E-15
  0.343750000       4.77504702E-15
  0.344999999       1.06378707E-14
  0.346249998       1.52115327E-14
  0.347499996       1.79315537E-14
  0.348749995       1.84490840E-14
  0.349999994       1.66785141E-14
  0.351249993       1.28145878E-14
  0.352499992       7.31590996E-15
  0.353749990       8.55766492E-16
  0.354999989      -5.75492946E-15
  0.356249988      -1.16641705E-14
  0.357499987      -1.60838360E-14
  0.358749986      -1.83906354E-14
  0.360000014      -1.82105426E-14
  0.361250013      -1.54757375E-14
  0.362500012      -1.04459694E-14
  0.363750011      -3.69021381E-15
  0.365000010       3.97087648E-15
  0.366250008       1.15564381E-14
  0.367500007       1.80411784E-14
  0.368750006       2.24824720E-14
  0.370000005       2.41438254E-14
  0.371250004       2.25994574E-14
  0.372500002       1.78063198E-14
  0.373750001       1.01331170E-14
  0.375000000       3.40509468E-16
  0.376249999      -1.04877426E-14
  0.377499998      -2.10570900E-14
  0.378749996      -3.00068909E-14
  0.379999995      -3.60719890E-14
  0.381249994      -3.82428532E-14
  0.382499993      -3.59051676E-14
  0.383749992      -2.89411371E-14
  0.384999990      -1.77783237E-14
  0.386249989      -3.37724212E-15
  0.387499988       1.28444373E-14
  0.388749987       2.91459328E-14
  0.389999986       4.36435149E-14
  0.391250014       5.45185980E-14
  0.392500013       6.02314964E-14
  0.393750012       5.97166359E-14
  0.395000011       5.25358464E-14
  0.396250010       3.89699462E-14
  0.397500008       2.00347178E-14
  0.398750007      -2.58479050E-15
  0.400000006      -2.66788172E-14
  0.401250005      -4.97245169E-14
  0.402500004      -6.91447293E-14
  0.403750002      -8.25877385E-14
  0.405000001      -8.81982069E-14
  0.406250000      -8.48489302E-14
  0.407499999      -7.23059850E-14
  0.408749998      -5.13056733E-14
  0.409999996      -2.35304516E-14
  0.411249995       8.51862306E-15
  0.412499994       4.17442468E-14
  0.413749993       7.27506434E-14
  0.414999992       9.81883506E-14
  0.416249990       1.15111195E-13
  0.417499989       1.21307952E-13
  0.418749988       1.15571994E-13
  0.419999987       9.78775776E-14
  0.421249986       6.94400050E-14
  0.422500014       3.26479871E-14
  0.423750013      -9.12990217E-15
  0.425000012      -5.18497734E-14
  0.426250011      -9.11806912E-14
  0.427500010      -1.22939243E-13
  0.428750008      -1.43527239E-13
  0.430000007      -1.50326922E-13
  0.431250006      -1.42011091E-13
  0.432500005      -1.18732633E-13
  0.433750004      -8.21695888E-14
  0.435000002      -3.54154538E-14
  0.436250001       1.72793214E-14
  0.437500000       7.08938049E-14
  0.438749999       1.20115533E-13
  0.439999998       1.59866803E-13
  0.441249996       1.85826167E-13
  0.442499995       1.94891792E-13
  0.443749994       1.85538000E-13
  0.444999993       1.58025502E-13
  0.446249992       1.14439098E-13
  0.447499990       5.85440713E-14
  0.448749989      -4.53076695E-15
  0.449999988      -6.87563410E-14
  0.451249987      -1.27771125E-13
  0.452499986      -1.75500727E-13
  0.453750014      -2.06768454E-13
  0.455000013      -2.17836830E-13
  0.456250012      -2.06823450E-13
  0.457500011      -1.73946835E-13
  0.458750010      -1.21573663E-13
  0.460000008      -5.40571311E-14
  0.461250007       2.26250174E-14
  0.462500006       1.01402055E-13
  0.463750005       1.74764039E-13
  0.465000004       2.35478385E-13
  0.466250002       2.77301294E-13
  0.467500001       2.95615095E-13
  0.468750000       2.87926963E-13
  0.469999999       2.54177837E-13
  0.471249998       1.96826442E-13
  0.472499996       1.20692654E-13
  0.473749995       3.25714052E-14
  0.474999994      -5.93558067E-14
  0.476249993      -1.46259361E-13
  0.477499992      -2.19486349E-13
  0.478749990      -2.71392094E-13
  0.479999989      -2.96102281E-13
  0.481249988      -2.90132474E-13
  0.482499987      -2.52799084E-13
  0.483749986      -1.86381292E-13
  0.485000014      -9.60044151E-14
  0.486250013       1.07466001E-14
  0.487500012       1.24460894E-13
  0.488750011       2.34722886E-13
  0.490000010       3.31060049E-13
  0.491250008       4.03930090E-13
  0.492500007       4.45651979E-13
  0.493750006       4.51194935E-13
  0.495000005       4.18747963E-13
  0.496250004       3.50008542E-13
  0.497500002       2.50152329E-13
  0.498750001       1.27476886E-13
  0.500000000      -7.25065285E-15
  0.501250029      -1.41713505E-13
  0.502499998      -2.63148308E-13
  0.503750026      -3.59514962E-13
  0.504999995      -4.20652581E-13
  0.506250024      -4.39299747E-13
  0.507499993      -4.11897946E-13
  0.508750021      -3.39059591E-13
  0.509999990      -2.25678037E-13
  0.511250019      -8.06380245E-14
  0.512499988       8.38569326E-14
  0.513750017       2.53300446E-13
  0.514999986       4.12151406E-13
  0.516250014       5.45258446E-13
  0.517499983       6.39297155E-13
  0.518750012       6.84088691E-13
  0.519999981       6.73688048E-13
  0.521250010       6.07115649E-13
  0.522499979       4.88641083E-13
  0.523750007       3.27580411E-13
  0.524999976       1.37607861E-13
  0.526250005      -6.43580851E-14
  0.527499974      -2.59635954E-13
  0.528750002      -4.29499752E-13
  0.529999971      -5.56921805E-13
  0.531250000      -6.28292448E-13
  0.532500029      -6.34854311E-13
  0.533749998      -5.73691810E-13
  0.535000026      -4.48238181E-13
  0.536249995      -2.68189740E-13
  0.537500024      -4.87900837E-14
  0.538749993       1.90434257E-13
  0.540000021       4.27396779E-13
  0.541249990       6.39486294E-13
  0.542500019       8.05764255E-13
  0.543749988       9.09025784E-13
  0.545000017       9.37608498E-13
  0.546249986       8.86686991E-13
  0.547500014       7.59024354E-13
  0.548749983       5.64922566E-13
  0.550000012       3.21506737E-13
  0.551249981       5.12049137E-14
  0.552500010      -2.20269495E-13
  0.553749979      -4.66341538E-13
  0.555000007      -6.62165255E-13
  0.556249976      -7.87195179E-13
  0.557500005      -8.27290005E-13
  0.558749974      -7.76348549E-13
  0.560000002      -6.37176076E-13
  0.561249971      -4.21493651E-13
  0.562500000      -1.49060289E-13
  0.563750029       1.54113660E-13
  0.564999998       4.58170286E-13
  0.566250026       7.32307932E-13
  0.567499995       9.47901154E-13
  0.568750024       1.08141621E-12
  0.569999993       1.11698162E-12
  0.571250021       1.04819094E-12
  0.572499990       8.79081909E-13
  0.573750019       6.24019011E-13
  0.574999988       3.06568789E-13
  0.576250017      -4.27206759E-14
  0.577499986      -3.89169654E-13
  0.578750014      -6.97431750E-13
  0.579999983      -9.35043275E-13
  0.581250012      -1.07588125E-12
  0.582499981      -1.10297557E-12
  0.583750010      -1.01046678E-12
  0.584999979      -8.04634462E-13
  0.586250007      -5.03462886E-13
  0.587499976      -1.35138550E-13
  0.588750005       2.64553163E-13
  0.589999974       6.55735178E-13
  0.591250002       9.98445901E-13
  0.592499971       1.25677084E-12
  0.593750000       1.40266661E-12
  0.595000029       1.41904349E-12
  0.596249998       1.30186140E-12
  0.597500026       1.06084130E-12
  0.598749995       7.18749387E-13
  0.600000024       3.09415498E-13
  0.601249993      -1.25628322E-13
  0.602500021      -5.41190194E-13
  0.603749990      -8.93045403E-13
  0.605000019      -1.14268556E-12
  0.606249988      -1.26136298E-12
  0.607500017      -1.23332128E-12
  0.608749986      -1.05783980E-12
  0.610000014      -7.49484784E-13
  0.611249983      -3.36989741E-13
  0.612500012       1.39411459E-13
  0.613749981       6.32019827E-13
  0.615000010       1.09040858E-12
  0.616249979       1.46671683E-12
  0.617500007       1.72079516E-12
  0.618749976       1.82459321E-12
  0.620000005       1.76518804E-12
  0.621249974       1.54666416E-12
  0.622500002       1.18980650E-12
  0.623749971       7.30306386E-13
  0.625000000       2.15297195E-13
  0.626250029      -3.01416308E-13
  0.627499998      -7.64907126E-13
  0.628750026      -1.12478841E-12
  0.629999995      -1.34079108E-12
  0.631250024      -1.38705974E-12
  0.632499993      -1.25522769E-12
  0.633750021      -9.55718035E-13
  0.634999990      -5.16813480E-13
  0.636250019       1.78599167E-14
  0.637499988       5.93877649E-13
  0.638750017       1.15135007E-12
  0.639999986       1.63134068E-12
  0.641250014       1.98213386E-12
  0.642499983       2.16486920E-12
  0.643750012       2.15769134E-12
  0.644999981       1.95832304E-12
  0.646250010       1.58468063E-12
  0.647499979       1.07341805E-12
  0.648750007       4.76189834E-13
  0.649999976      -1.45588606E-13
  0.651250005      -7.27008731E-13
  0.652499974      -1.20664102E-12
  0.653750002      -1.53277933E-12
  0.654999971      -1.66916394E-12
  0.656250000      -1.59883651E-12
  0.657500029      -1.32612595E-12
  0.658749998      -8.76465133E-13
  0.660000026      -2.93804016E-13
  0.661249995       3.63817673E-13
  0.662500024       1.03031299E-12
  0.663749993       1.63863714E-12
  0.665000021       2.12766089E-12
  0.666249990       2.44876775E-12
  0.667500019       2.57106424E-12
  0.668749988       2.48454057E-12
  0.670000017       2.20140854E-12
  0.671249986       1.75470239E-12
  0.672500014       1.19464920E-12
  0.673749983       5.83364032E-13
  0.675000012      -1.19016786E-14
  0.676249981      -5.25882669E-13
  0.677500010      -9.02459422E-13
  0.678749979      -1.10073365E-12
  0.680000007      -1.09942773E-12
  0.681249976      -8.99250401E-13
  0.682500005      -5.22878670E-13
  0.683749974      -1.22202256E-14
  0.685000002       5.75981049E-13
  0.686249971       1.17647396E-12
  0.687500000       1.72270184E-12
  0.688750029       2.15417419E-12
  0.689999998       2.42294552E-12
  0.691250026       2.49913241E-12
  0.692499995       2.37410981E-12
  0.693750024       2.06154017E-12
  0.694999993       1.59592261E-12
  0.696250021       1.02878480E-12
  0.697499990       4.22866169E-13
  0.698750019      -1.54826035E-13
  0.699999988      -6.40561768E-13
  0.701250017      -9.80930506E-13
  0.702499986      -1.13878536E-12
  0.703750014      -1.09748723E-12
  0.704999983      -8.62881327E-13
  0.706250012      -4.62705829E-13
  0.707499981       5.62393658E-14
  0.708750010       6.33548281E-13
  0.709999979       1.20188495E-12
  0.711250007       1.69444417E-12
  0.712499976       2.05247256E-12
  0.713750005       2.23225019E-12
  0.714999974       2.21005310E-12
  0.716250002       1.98487646E-12
  0.717499971       1.57887614E-12
  0.718750000       1.03493635E-12
  0.720000029       4.12270587E-13
  0.721249998      -2.20602101E-13
  0.722500026      -7.93049979E-13
  0.723749995      -1.24077018E-12
  0.725000024      -1.51295805E-12
  0.726249993      -1.57790805E-12
  0.727500021      -1.42735227E-12
  0.728749990      -1.07736183E-12
  0.730000019      -5.66895868E-13
  0.731249988       4.64425488E-14
  0.732500017       6.92584987E-13
  0.733749986       1.29678223E-12
  0.735000014       1.78811599E-12
  0.736249983       2.10732126E-12
  0.737500012       2.21347159E-12
  0.738749981       2.08897483E-12
  0.740000010       1.74173740E-12
  0.741249979       1.20468045E-12
  0.742500007       5.32336761E-13
  0.743749976      -2.05061012E-13
  0.745000005      -9.29200076E-13
  0.746249974      -1.56236851E-12
  0.747500002      -2.03626352E-12
  0.748749971      -2.29946509E-12
  0.750000000      -2.32332426E-12
  0.751250029      -2.10547964E-12
  0.752499998      -1.67023708E-12
  0.753750026      -1.06595082E-12
  0.754999995      -3.60238125E-13
  0.756250024       3.67559932E-13
  0.757499993       1.03530411E-12
  0.758750021       1.56693517E-12
  0.759999990       1.90138985E-12
  0.761250019       1.99899060E-12
  0.762499988       1.84625796E-12
  0.763750017       1.45767144E-12
  0.764999986       8.74072949E-13
  0.766250014       1.58492888E-13
  0.767499983      -6.11009453E-13
  0.768750012      -1.34985339E-12
  0.769999981      -1.97631278E-12
  0.771250010      -2.42056809E-12
  0.772499979      -2.63278201E-12
  0.773750007      -2.58856847E-12
  0.774999976      -2.29210119E-12
  0.776250005      -1.77556472E-12
  0.777499974      -1.09564170E-12
  0.778750002      -3.27659042E-13
  0.779999971       4.42929330E-13
  0.781250000       1.13035026E-12
  0.782500029       1.65796706E-12
  0.783749998       1.96711094E-12
  0.785000026       2.02329689E-12
  0.786249995       1.82084859E-12
  0.787500024       1.38357002E-12
  0.788749993       7.61969914E-13
  0.790000021       2.80369041E-14
  0.791249990      -7.32817344E-13
  0.792500019      -1.43131720E-12
  0.793749988      -1.98459565E-12
  0.795000017      -2.32534022E-12
  0.796249986      -2.40970438E-12
  0.797500014      -2.22258410E-12
  0.798749983      -1.77964674E-12
  0.800000012      -1.12604880E-12
  0.801249981      -3.31290605E-13
  0.802500010       5.18450842E-13
  0.803749979       1.32927068E-12
  0.805000007       2.01052217E-12
  0.806249976       2.48515076E-12
  0.807500005       2.69837538E-12
  0.808749974       2.62406329E-12
  0.810000002       2.26822901E-12
  0.811249971       1.66893008E-12
  0.812500000       8.92441340E-13
  0.813750029       2.61135430E-14
  0.814999998      -8.30843044E-13
  0.816250026      -1.57860313E-12
  0.817499995      -2.12752949E-12
  0.818750024      -2.40854428E-12
  0.819999993      -2.38094180E-12
  0.821250021      -2.03764219E-12
  0.822499990      -1.40605941E-12
  0.823750019      -5.46012671E-13
  0.824999988       4.56433773E-13
  0.826250017       1.49790510E-12
  0.827499986       2.46877280E-12
  0.828750014       3.26499071E-12
  0.829999983       3.79948980E-12
  0.831250012       4.01137587E-12
  0.832499981       3.87326326E-12
  0.833750010       3.39435359E-12
  0.834999979       2.61967704E-12
  0.836250007       1.62561653E-12
  0.837499976       5.12274522E-13
  0.838750005      -6.07016065E-13
  0.839999974      -1.61809607E-12
  0.841250002      -2.41739810E-12
  0.842499971      -2.92357176E-12
  0.843750000      -3.08581698E-12
  0.845000029      -2.88936323E-12
  0.846249998      -2.35732896E-12
  0.847500026      -1.54748133E-12
  0.848749995      -5.46556127E-13
  0.850000024       5.39367542E-13
  0.851249993       1.59633244E-12
  0.852500021       2.51434377E-12
  0.853749990       3.19952962E-12
  0.855000019       3.58403715E-12
  0.856249988       3.63335859E-12
  0.857500017       3.34922151E-12
  0.858749986       2.76946760E-12
  0.860000014       1.96367705E-12
  0.861249983       1.02552472E-12
  0.862500012       6.24230824E-14
  0.863749981      -8.16666071E-13
  0.865000010      -1.51269676E-12
  0.866249979      -1.94735612E-12
  0.867500007      -2.07170327E-12
  0.868749976      -1.87124947E-12
  0.870000005      -1.36725375E-12