 -0.200000003       0.00000000    
 -0.198750004       0.00000000    
 -0.197500005       0.00000000    
 -0.196250007       0.00000000    
 -0.194999993       0.00000000    
 -0.193749994       0.00000000    
 -0.192499995       0.00000000    
 -0.191249996       0.00000000    
 -0.189999998       0.00000000    
 -0.188749999       0.00000000    
 -0.187500000       0.00000000    
 -0.186250001       0.00000000    
 -0.185000002       0.00000000    
 -0.183750004       0.00000000    
 -0.182500005       0.00000000    
 -0.181250006       0.00000000    
 -0.180000007       0.00000000    
 -0.178749993       0.00000000    
 -0.177499995       0.00000000    
 -0.176249996       0.00000000    
 -0.174999997       0.00000000    
 -0.173749998       0.00000000    
 -0.172499999       0.00000000    
 -0.171250001       0.00000000    
 -0.170000002       0.00000000    
 -0.168750003       0.00000000    
 -0.167500004       0.00000000    
 -0.166250005       0.00000000    
 -0.165000007       0.00000000    
 -0.163749993       0.00000000    
 -0.162499994       0.00000000    
 -0.161249995       0.00000000    
 -0.159999996       0.00000000    
 -0.158749998       0.00000000    
 -0.157499999       0.00000000    
 -0.156250000       0.00000000    
 -0.155000001       0.00000000    
 -0.153750002       0.00000000    
 -0.152500004       0.00000000    
 -0.151250005       0.00000000    
 -0.150000006       0.00000000    
 -0.148750007       0.00000000    
 -0.147499993       0.00000000    
 -0.146249995       0.00000000    
 -0.144999996       0.00000000    
 -0.143749997       0.00000000    
 -0.142499998       0.00000000    
 -0.141249999       0.00000000    
 -0.140000001       0.00000000    
 -0.138750002       0.00000000    
 -0.137500003       0.00000000    
 -0.136250004       0.00000000    
 -0.135000005       0.00000000    
 -0.133750007       0.00000000    
 -0.132499993       0.00000000    
 -0.131249994       0.00000000    
 -0.129999995       0.00000000    
 -0.128749996       0.00000000    
 -0.127499998       0.00000000    
 -0.126249999       0.00000000    
 -0.125000000       0.00000000    
 -0.123750001       0.00000000    
 -0.122500002       0.00000000    
 -0.121250004       0.00000000    
 -0.119999997       0.00000000    
 -0.118749999       0.00000000    
 -0.117500000       0.00000000    
 -0.116250001       0.00000000    
 -0.115000002       0.00000000    
 -0.113750003       0.00000000    
 -0.112499997       0.00000000    
 -0.111249998       0.00000000    
 -0.109999999       0.00000000    
 -0.108750001       0.00000000    
 -0.107500002       0.00000000    
 -0.106250003       0.00000000    
 -0.104999997       0.00000000    
 -0.103749998       0.00000000    
 -0.102499999       0.00000000    
 -0.101250000       0.00000000    
 -0.100000001       0.00000000    
  -9.87500027E-02   0.00000000    
  -9.74999964E-02   0.00000000    
  -9.62499976E-02   0.00000000    
  -9.49999988E-02   0.00000000    
  -9.37500000E-02   0.00000000    
  -9.25000012E-02   0.00000000    
  -9.12500024E-02   0.00000000    
  -9.00000036E-02   0.00000000    
  -8.87499973E-02   0.00000000    
  -8.74999985E-02   0.00000000    
  -8.62499997E-02   0.00000000    
  -8.50000009E-02   0.00000000    
  -8.37500021E-02   0.00000000    
  -8.25000033E-02   0.00000000    
  -8.12499970E-02   0.00000000    
  -7.99999982E-02   0.00000000    
  -7.87499994E-02   0.00000000    
  -7.75000006E-02   0.00000000    
  -7.62500018E-02   0.00000000    
  -7.50000030E-02   0.00000000    
  -7.37499967E-02   0.00000000    
  -7.24999979E-02   0.00000000    
  -7.12499991E-02   0.00000000    
  -7.00000003E-02   0.00000000    
  -6.87500015E-02   0.00000000    
  -6.75000027E-02   0.00000000    
  -6.62499964E-02   0.00000000    
  -6.49999976E-02   0.00000000    
  -6.37499988E-02   0.00000000    
  -6.25000000E-02   0.00000000    
  -6.12500012E-02   0.00000000    
  -5.99999987E-02   0.00000000    
  -5.87499999E-02   0.00000000    
  -5.75000010E-02   0.00000000    
  -5.62499985E-02   0.00000000    
  -5.49999997E-02   0.00000000    
  -5.37500009E-02   0.00000000    
  -5.24999984E-02   0.00000000    
  -5.12499996E-02   0.00000000    
  -5.00000007E-02   0.00000000    
  -4.87499982E-02   0.00000000    
  -4.74999994E-02   0.00000000    
  -4.62500006E-02   0.00000000    
  -4.50000018E-02   0.00000000    
  -4.37499993E-02   0.00000000    
  -4.25000004E-02   0.00000000    
  -4.12500016E-02   0.00000000    
  -3.99999991E-02   0.00000000    
  -3.87500003E-02   0.00000000    
  -3.75000015E-02   0.00000000    
  -3.62499990E-02   0.00000000    
  -3.50000001E-02   0.00000000    
  -3.37500013E-02   0.00000000    
  -3.24999988E-02   0.00000000    
  -3.12500000E-02   0.00000000    
  -2.99999993E-02   0.00000000    
  -2.87500005E-02   0.00000000    
  -2.74999999E-02   0.00000000    
  -2.62499992E-02   0.00000000    
  -2.50000004E-02   0.00000000    
  -2.37499997E-02   0.00000000    
  -2.25000009E-02   0.00000000    
  -2.12500002E-02   0.00000000    
  -1.99999996E-02   0.00000000    
  -1.87500007E-02   0.00000000    
  -1.75000001E-02   0.00000000    
  -1.62499994E-02   0.00000000    
  -1.49999997E-02   0.00000000    
  -1.37499999E-02   0.00000000    
  -1.25000002E-02   0.00000000    
  -1.12500004E-02   0.00000000    
  -9.99999978E-03   0.00000000    
  -8.75000004E-03   0.00000000    
  -7.49999983E-03   0.00000000    
  -6.25000009E-03   0.00000000    
  -4.99999989E-03   0.00000000    
  -3.74999992E-03   0.00000000    
  -2.49999994E-03   0.00000000    
  -1.24999997E-03   0.00000000    
   0.00000000       0.00000000    
   1.24999997E-03   0.00000000    
   2.49999994E-03   0.00000000    
   3.74999992E-03   0.00000000    
   4.99999989E-03   0.00000000    
   6.25000009E-03   0.00000000    
   7.49999983E-03   0.00000000    
   8.75000004E-03   0.00000000    
   9.99999978E-03   0.00000000    
   1.12500004E-02   0.00000000    
   1.25000002E-02   0.00000000    
   1.37499999E-02   0.00000000    
   1.49999997E-02   0.00000000    
   1.62499994E-02   0.00000000    
   1.75000001E-02   0.00000000    
   1.87500007E-02   0.00000000    
   1.99999996E-02   0.00000000    
   2.12500002E-02   0.00000000    
   2.25000009E-02   0.00000000    
   2.37499997E-02   0.00000000    
   2.50000004E-02   0.00000000    
   2.62499992E-02   0.00000000    
   2.74999999E-02   0.00000000    
   2.87500005E-02   0.00000000    
   2.99999993E-02   0.00000000    
   3.12500000E-02   0.00000000    
   3.24999988E-02   0.00000000    
   3.37500013E-02   0.00000000    
   3.50000001E-02   0.00000000    
   3.62499990E-02   2.80259693E-45
   3.75000015E-02   8.40779079E-45
   3.87500003E-02   1.40129846E-44
   3.99999991E-02   1.96181785E-44
   4.12500016E-02   2.24207754E-44
   4.25000004E-02   1.54142831E-44
   4.37499993E-02  -8.40779079E-45
   4.50000018E-02  -4.20389539E-44
   4.62500006E-02  -8.26766094E-44
   4.74999994E-02  -1.27518160E-43
   4.87499982E-02  -1.58346726E-43
   5.00000007E-02  -1.44333742E-43
   5.12499996E-02  -3.36311631E-44
   5.24999984E-02   4.25994733E-43
   5.37500009E-02   1.24295174E-42
   5.49999997E-02   2.02767888E-42
   5.62499985E-02   2.82641900E-42
   5.75000010E-02   3.61254744E-42
   5.87499999E-02   4.05675905E-42
   5.99999987E-02   3.26502542E-42
   6.12500012E-02   1.00052710E-42
   6.25000000E-02  -2.03328407E-42
   6.37499988E-02  -5.23104717E-42
   6.49999976E-02  -8.53390765E-42
   6.62499964E-02  -1.21983031E-41
   6.75000027E-02  -1.53217974E-41
   6.87500015E-02  -1.62340427E-41
   7.00000003E-02  -1.42329885E-41
   7.12499991E-02  -8.50027648E-42
   7.24999979E-02   1.55263870E-42
   7.37499967E-02   1.53736455E-41
   7.50000030E-02   3.16749505E-41
   7.62500018E-02   4.85241632E-41
   7.75000006E-02   6.27459413E-41
   7.87499994E-02   7.05469699E-41
   7.99999982E-02   6.78186418E-41
   8.12499970E-02   5.04117123E-41
   8.25000033E-02   1.54773415E-41
   8.37500021E-02  -3.80732793E-41
   8.50000009E-02  -1.07968645E-40
   8.62499997E-02  -1.86910794E-40
   8.74999985E-02  -2.62849961E-40
   8.87499973E-02  -3.19748284E-40
   9.00000036E-02  -3.36877756E-40
   9.12500024E-02  -2.92986286E-40
   9.25000012E-02  -1.70863124E-40
   9.37500000E-02   4.01822335E-41
   9.49999988E-02   3.35825381E-40
   9.62499976E-02   6.93114450E-40
   9.74999964E-02   1.06884040E-39
   9.87500027E-02   1.39732859E-39
  0.100000001       1.59416898E-39
  0.101250000       1.56465483E-39
  0.102499999       1.21977286E-39
  0.103749998       4.93719488E-40
  0.104999997      -6.33599903E-40
  0.106250003      -2.11329121E-39
  0.107500002      -3.80909637E-39
  0.108750001      -5.48799626E-39
  0.109999999      -6.82672114E-39
  0.111249998      -7.43600291E-39
  0.112499997      -6.90753683E-39
  0.113750003      -4.88369330E-39
  0.115000002      -1.14296909E-39
  0.116250001       4.30539845E-39
  0.117500000       1.11362702E-38
  0.118749999       1.86470661E-38
  0.119999997       2.57412586E-38
  0.121250004       3.09809602E-38
  0.122500002       3.27173120E-38
  0.123750001       2.93075997E-38
  0.125000000       1.94100969E-38
  0.126249999       2.33040839E-39
  0.127499998      -2.16222693E-38
  0.128749996      -5.08352407E-38
  0.129999995      -8.22086934E-38
  0.131249994      -1.11166240E-37
  0.132499993      -1.31921006E-37
  0.133750007      -1.38028538E-37
  0.135000005      -1.23232631E-37
  0.136250004      -8.25523366E-38
  0.137500003      -1.35115454E-38
  0.138750002       8.26423561E-38
  0.140000001       1.99914104E-37
  0.141249999       3.26946787E-37
  0.142499998       4.47021878E-37
  0.143749997       5.38842576E-37
  0.144999996       5.78215297E-37
  0.146249995       5.40653144E-37
  0.147499993       4.04828400E-37
  0.148750007       1.56684966E-37
  0.150000006      -2.06098696E-37
  0.151250005      -6.69727709E-37
  0.152500004      -1.20054230E-36
  0.153750002      -1.74258123E-36
  0.155000001      -2.21727263E-36
  0.156250000      -2.52614859E-36
  0.157499999      -2.55751400E-36
  0.158749998      -2.19791471E-36
  0.159999996      -1.34892084E-36
  0.161249995       5.08817414E-38
  0.162499994       1.99980385E-36
  0.163749993       4.40540687E-36
  0.165000007       7.05956535E-36
  0.166250005       9.62230733E-36
  0.167500004       1.16220317E-35
  0.168750003       1.24803392E-35
  0.170000002       1.15688360E-35
  0.171250001       8.30226534E-36
  0.172499999       2.26676820E-36
  0.173749998      -6.62606019E-36
  0.174999997      -1.79787154E-35
  0.176249996      -3.07709351E-35
  0.177499995      -4.32853639E-35
  0.178749993      -5.31390831E-35
  0.180000007      -5.74611772E-35
  0.181250006      -5.32429892E-35
  0.182500005      -3.78626099E-35
  0.183750004      -9.74877414E-36
  0.185000002       3.08946289E-35
  0.186250001       8.14271652E-35
  0.187500000       1.36333812E-34
  0.188749999       1.87186891E-34
  0.189999998       2.23169577E-34
  0.191249996       2.32267283E-34
  0.192499995       2.03134355E-34
  0.193749994       1.27506687E-34
  0.194999993       2.87166296E-36
  0.196250007      -1.65048969E-34
  0.197500005      -3.60564020E-34
  0.198750004      -5.57625959E-34
  0.200000003      -7.21320160E-34
  0.201250002      -8.11551657E-34
  0.202500001      -7.88909707E-34
  0.203749999      -6.22244353E-34
  0.204999998      -2.96997165E-34
  0.206249997       1.77115683E-34
  0.207499996       7.60763046E-34
  0.208749995       1.38372546E-33
  0.209999993       1.94909637E-33
  0.211250007       2.34366868E-33
  0.212500006       2.45417709E-33
  0.213750005       2.18780658E-33
  0.215000004       1.49410172E-33
  0.216250002       3.84392898E-34
  0.217500001      -1.05562928E-33
  0.218750000      -2.66426070E-33
  0.219999999      -4.21589286E-33
  0.221249998      -5.44760559E-33
  0.222499996      -6.09818331E-33
  0.223749995      -5.95448243E-33
  0.224999994      -4.89745624E-33
  0.226249993      -2.93860216E-33
  0.227500007      -2.37687805E-34
  0.228750005       2.90520417E-33
  0.230000004       6.08605772E-33
  0.231250003       8.85868485E-33
  0.232500002       1.08124380E-32
  0.233750001       1.16508403E-32
  0.234999999       1.12528495E-32
  0.236249998       9.69895540E-33
  0.237499997       7.24941031E-33
  0.238749996       4.27156684E-33
  0.239999995       1.12636126E-33
  0.241249993      -1.96198934E-33
  0.242500007      -5.01730119E-33
  0.243750006      -8.36241098E-33
  0.245000005      -1.25724131E-32
  0.246250004      -1.83081173E-32
  0.247500002      -2.60343199E-32
  0.248750001      -3.56621388E-32
  0.250000000      -4.61911210E-32
  0.251249999      -5.54563793E-32
  0.252499998      -6.00988473E-32
  0.253749996      -5.58638644E-32
  0.254999995      -3.82891541E-32
  0.256249994      -3.76793914E-33
  0.257499993       4.91258132E-32
  0.258749992       1.18269625E-31
  0.259999990       1.96893717E-31
  0.261249989       2.73113182E-31
  0.262499988       3.30437057E-31
  0.263749987       3.49500613E-31
  0.264999986       3.11077394E-31
  0.266250014       2.00164260E-31
  0.267500013       1.06293584E-32
  0.268750012      -2.50374866E-31
  0.270000011      -5.59237394E-31
  0.271250010      -8.75011664E-31
  0.272500008      -1.14174074E-30
  0.273750007      -1.29450168E-30
  0.275000006      -1.26907668E-30
  0.276250005      -1.01439605E-30
  0.277500004      -5.06095316E-31
  0.278750002       2.41155276E-31
  0.280000001       1.16528702E-30
  0.281250000       2.15512407E-30
  0.282499999       3.05741755E-30
  0.283749998       3.69354393E-30
  0.284999996       3.88514914E-30
  0.286249995       3.48611300E-30
  0.287499994       2.41637816E-30
  0.288749993       6.91776921E-31
  0.289999992      -1.55658793E-30
  0.291249990      -4.07931109E-30
  0.292499989      -6.52610690E-30
  0.293749988      -8.48481076E-30
  0.294999987      -9.53925891E-30
  0.296249986      -9.33927365E-30
  0.297500014      -7.67238655E-30
  0.298750013      -4.52463950E-30
  0.300000012      -1.17527359E-31
  0.301250011       5.08969795E-30
  0.302500010       1.04384944E-29
  0.303750008       1.51497561E-29
  0.305000007       1.84346177E-29
  0.306250006       1.96217805E-29
  0.307500005       1.82803778E-29
  0.308750004       1.43152086E-29
  0.310000002       8.01338449E-30
  0.311250001       2.82114648E-32
  0.312500000      -8.70312846E-30
  0.313749999      -1.70984903E-29
  0.314999998      -2.41037129E-29
  0.316249996      -2.88670658E-29
  0.317499995      -3.08783596E-29
  0.318749994      -3.00392530E-29
  0.319999993      -2.66429236E-29
  0.321249992      -2.12600427E-29
  0.322499990      -1.45508446E-29
  0.323749989      -7.04555654E-30
  0.324999988       1.04813697E-30
  0.326249987       9.94666005E-30
  0.327499986       2.02469284E-29
  0.328750014       3.27093532E-29
  0.330000013       4.78791119E-29
  0.331250012       6.56048836E-29
  0.332500011       8.45599403E-29
  0.333750010       1.01903228E-28
  0.335000008       1.13226360E-28
  0.336250007       1.12907968E-28
  0.337500006       9.49363634E-29
  0.338750005       5.41694640E-29
  0.340000004      -1.21110412E-29
  0.341250002      -1.02605663E-28
  0.342500001      -2.10704560E-28
  0.343750000      -3.23874707E-28
  0.344999999      -4.24070322E-28
  0.346249998      -4.89394591E-28
  0.347499996      -4.97045348E-28
  0.348749995      -4.27325962E-28
  0.349999994      -2.68229945E-28
  0.351249993      -1.98661600E-29
  0.352499992       3.02163699E-28
  0.353749990       6.65342447E-28
  0.354999989       1.02152297E-27
  0.356249988       1.31134163E-27
  0.357499987       1.47168887E-27
  0.358749986       1.44558559E-27
  0.360000014       1.19322790E-27
  0.361250013       7.02487473E-28
  0.362500012      -3.09900785E-30
  0.363750011      -8.60760107E-28
  0.365000010      -1.77083038E-27
  0.366250008      -2.60572197E-27
  0.367500007      -3.22521005E-27
  0.368750006      -3.49654353E-27
  0.370000005      -3.31680073E-27
  0.371250004      -2.63408225E-27
  0.372500002      -1.46380055E-27
  0.373750001       1.03408728E-28
  0.375000000       1.90468655E-27
  0.376249999       3.71987745E-27
  0.377499998       5.29748139E-27
  0.378749996       6.38871214E-27
  0.379999995       6.78499727E-27
  0.381249994       6.35311865E-27
  0.382499993       5.06195827E-27
  0.383749992       2.99567252E-27
  0.384999990       3.49974573E-28
  0.386249989      -2.58911468E-27
  0.387499988      -5.48162610E-27
  0.388749987      -7.97980106E-27
  0.389999986      -9.77659818E-27
  0.391250014      -1.06481886E-26
  0.392500013      -1.04827766E-26
  0.393750012      -9.29034324E-27
  0.395000011      -7.19149560E-27
  0.396250010      -4.38788741E-27
  0.397500008      -1.12081159E-27
  0.398750007       2.37235396E-27
  0.400000006       5.89297778E-27
  0.401250005       9.29765098E-27
  0.402500004       1.24904006E-26
  0.403750002       1.53905176E-26
  0.405000001       1.78826879E-26
  0.406250000       1.97625650E-26
  0.407499999       2.06954161E-26
  0.408749998       2.02065766E-26
  0.409999996       1.77191733E-26
  0.411249995       1.26467576E-26
  0.412499994       4.53687350E-27
  0.413749993      -6.75206387E-27
  0.414999992      -2.08713105E-26
  0.416249990      -3.68400909E-26
  0.417499989      -5.29852170E-26
  0.418749988      -6.70003787E-26
  0.419999987      -7.61488911E-26
  0.421249986      -7.76109523E-26
  0.422500014      -6.89479222E-26
  0.423750013      -4.86268191E-26
  0.425000012      -1.65232987E-26
  0.426250011       2.56933353E-26
  0.427500010       7.43891211E-26
  0.428750008       1.24086070E-25
  0.430000007       1.67915946E-25
  0.431250006       1.98397988E-25
  0.432500005       2.08473060E-25
  0.433750004       1.92670093E-25
  0.435000002       1.48236011E-25
  0.436250001       7.60381917E-26
  0.437500000      -1.89444900E-26
  0.438749999      -1.27685790E-25
  0.439999998      -2.37804536E-25
  0.441249996      -3.34865439E-25
  0.442499995      -4.04166056E-25
  0.443749994      -4.32793104E-25
  0.444999993      -4.11661246E-25
  0.446249992      -3.37218562E-25
  0.447499990      -2.12522357E-25
  0.448749989      -4.74621368E-26
  0.449999988       1.41977411E-25
  0.451249987       3.35374821E-25
  0.452499986       5.10262449E-25
  0.453750014       6.44929486E-25
  0.455000013       7.21233536E-25
  0.456250012       7.26996707E-25
  0.457500011       6.57615010E-25
  0.458750010       5.16631515E-25
  0.460000008       3.15195760E-25
  0.461250007       7.05250462E-26
  0.462500006      -1.96339246E-25
  0.463750005      -4.63060267E-25
  0.465000004      -7.08354248E-25
  0.466250002      -9.13743996E-25
  0.467500001      -1.06444680E-24
  0.468750000      -1.14933898E-24
  0.469999999      -1.16018158E-24
  0.471249998      -1.09051057E-24
  0.472499996      -9.34734401E-25
  0.473749995      -6.88000650E-25
  0.474999994      -3.47265001E-25
  0.476249993       8.62737113E-26
  0.477499992       6.03582969E-25
  0.478749990       1.18367218E-24
  0.479999989       1.78991869E-24
  0.481249988       2.36804645E-24
  0.482499987       2.84695976E-24
  0.483749986       3.14335906E-24
  0.485000014       3.17052309E-24
  0.486250013       2.85088237E-24
  0.487500012       2.13113594E-24
  0.488750011       9.97842978E-25
  0.490000010      -5.09197093E-25
  0.491250008      -2.28869907E-24
  0.492500007      -4.17745039E-24
  0.493750006      -5.95955699E-24
  0.495000005      -7.38597292E-24
  0.496250004      -8.20328409E-24
  0.497500002      -8.18897415E-24
  0.498750001      -7.18883026E-24
  0.500000000      -5.15104320E-24
  0.501250029      -2.15120456E-24
  0.502499998       1.59705354E-24
  0.503750026       5.74954960E-24
  0.504999995       9.85863928E-24
  0.506250024       1.34185319E-23
  0.507499993       1.59245079E-23
  0.508750021       1.69390824E-23
  0.509999990       1.61563715E-23
  0.511250019       1.34553102E-23
  0.512499988       8.93319263E-24
  0.513750017       2.91320357E-24
  0.514999986      -4.07699961E-24
  0.516250014      -1.13545207E-23
  0.517499983      -1.81530147E-23
  0.518750012      -2.37082063E-23
  0.519999981      -2.73460179E-23
  0.521250010      -2.85615516E-23
  0.522499979      -2.70783763E-23
  0.523750007      -2.28805477E-23
  0.524999976      -1.62139567E-23
  0.526250005      -7.55834691E-24
  0.527499974       2.42417706E-24
  0.528750002       1.29550603E-23
  0.529999971       2.32090262E-23
  0.531250000       3.23775999E-23
  0.532500029       3.97190898E-23
  0.533749998       4.45918710E-23
  0.535000026       4.64725785E-23
  0.536249995       4.49652199E-23
  0.537500024       3.98100139E-23
  0.538749993       3.09011332E-23
  0.540000021       1.83200260E-23
  0.541249990       2.38591592E-24
  0.542500019      -1.62820055E-23
  0.543749988      -3.67036532E-23
  0.545000017      -5.74975975E-23
  0.546249986      -7.68835261E-23
  0.547500014      -9.27488631E-23
  0.548749983      -1.02794376E-22
  0.550000012      -1.04761978E-22
  0.551249981      -9.67327621E-23
  0.552500010      -7.74662292E-23
  0.553749979      -4.67364556E-23
  0.555000007      -5.60985732E-24
  0.556249976       4.33938532E-23
  0.557500005       9.63095036E-23
  0.558749974       1.47938519E-22
  0.560000002       1.92274773E-22
  0.561249971       2.23121949E-22
  0.562500000       2.34846340E-22
  0.563750029       2.23179378E-22
  0.564999998       1.85963343E-22
  0.566250026       1.23726623E-22
  0.567499995       3.99855291E-23
  0.568750024      -5.88038186E-23
  0.569999993      -1.63677632E-22
  0.571250021      -2.63963133E-22
  0.572499990      -3.48372234E-22
  0.573750019      -4.06270535E-22
  0.574999988      -4.28967768E-22
  0.576250017      -4.10862413E-22
  0.577499986      -3.50283247E-22
  0.578750014      -2.49905859E-22
  0.579999983      -1.16675797E-22
  0.581250012       3.87634479E-23
  0.582499981       2.03070934E-22
  0.583750010       3.61511779E-22
  0.584999979       4.99397471E-22
  0.586250007       6.03483490E-22
  0.587499976       6.63158886E-22
  0.588750005       6.71304071E-22
  0.589999974       6.24752543E-22
  0.591250002       5.24360413E-22
  0.592499971       3.74749825E-22
  0.593750000       1.83836360E-22
  0.595000029      -3.77318892E-23
  0.596249998      -2.77111513E-22
  0.597500026      -5.19708835E-22
  0.598749995      -7.49529436E-22
  0.600000024      -9.49498027E-22
  0.601249993      -1.10187495E-21
  0.602500021      -1.18892340E-21
  0.603749990      -1.19397150E-21
  0.605000019      -1.10295306E-21
  0.606249988      -9.06407592E-22
  0.607500017      -6.01787982E-22
  0.608749986      -1.95784599E-22
  0.610000014       2.93741080E-22
  0.611249983       8.36686273E-22
  0.612500012       1.39096034E-21
  0.613749981       1.90442059E-21
  0.615000010       2.31865552E-21
  0.616249979       2.57451605E-21
  0.617500007       2.61899013E-21
  0.618749976       2.41271904E-21
  0.620000005       1.93721600E-21
  0.621249974       1.20071789E-21
  0.622500002       2.41622239E-22
  0.623749971      -8.71354400E-22
  0.625000000      -2.04281663E-21
  0.626250029      -3.15817699E-21
  0.627499998      -4.09450122E-21
  0.628750026      -4.73369292E-21
  0.629999995      -4.97656696E-21
  0.631250024      -4.75608455E-21
  0.632499993      -4.04798483E-21
  0.633750021      -2.87725022E-21
  0.634999990      -1.31928613E-21
  0.636250019       5.04670949E-22
  0.637499988       2.43766370E-21
  0.638750017       4.30165826E-21
  0.639999986       5.91510676E-21
  0.641250014       7.11139855E-21
  0.642499983       7.75603559E-21
  0.643750012       7.76052934E-21
  0.644999981       7.09147432E-21
  0.646250010       5.77391818E-21
  0.647499979       3.88891856E-21
  0.648750007       1.56593398E-21
  0.649999976      -1.02868482E-21
  0.651250005      -3.70547632E-21
  0.652499974      -6.26621101E-21
  0.653750002      -8.51732448E-21
  0.654999971      -1.02814237E-20
  0.656250000      -1.14064684E-20
  0.657500029      -1.17728206E-20
  0.658749998      -1.12988251E-20
  0.660000026      -9.94578381E-21
  0.661249995      -7.72305984E-21
  0.662500024      -4.69361020E-21
  0.663749993      -9.79549361E-22
  0.665000021       3.23343851E-21
  0.666249990       7.69471436E-21
  0.667500019       1.20926091E-20
  0.668749988       1.60658912E-20
  0.670000017       1.92243899E-20
  0.671249986       2.11792213E-20
  0.672500014       2.15814459E-20
  0.673749983       2.01661496E-20
  0.675000012       1.67971883E-20
  0.676249981       1.15065298E-20
  0.677500010       4.52153483E-21
  0.678749979      -3.72605446E-21
  0.680000007      -1.26141424E-20
  0.681249976      -2.13695600E-20
  0.682500005      -2.91315563E-20
  0.683749974      -3.50348762E-20
  0.685000002      -3.83044077E-20
  0.686249971      -3.83507298E-20
  0.687500000      -3.48545056E-20
  0.688750029      -2.78278874E-20
  0.689999998      -1.76430144E-20
  0.691250026      -5.02121573E-21
  0.692499995       9.01868883E-21
  0.693750024       2.32493732E-20
  0.694999993       3.63524844E-20
  0.696250021       4.70516650E-20
  0.697499990       5.42456128E-20
  0.698750019       5.71252676E-20
  0.699999988       5.52608606E-20
  0.701250017       4.86485759E-20
  0.702499986       3.77116133E-20
  0.703750014       2.32566934E-20
  0.704999983       6.39274096E-21
  0.706250012      -1.15768281E-20
  0.707499981      -2.92739251E-20
  0.708750010      -4.53629144E-20
  0.709999979      -5.86520621E-20
  0.711250007      -6.81701450E-20
  0.712499976      -7.32139757E-20
  0.713750005      -7.33681027E-20
  0.714999974      -6.85023614E-20
  0.716250002      -5.87559960E-20
  0.717499971      -4.45176618E-20
  0.718750000      -2.64089867E-20
  0.720000029      -5.27547401E-21
  0.721249998       1.78165059E-20
  0.722500026       4.15831352E-20
  0.723749995       6.45376331E-20
  0.725000024       8.50282410E-20
  0.726249993       1.01311001E-19
  0.727500021       1.11663980E-19
  0.728749990       1.14542207E-19
  0.730000019       1.08763252E-19
  0.731249988       9.37038211E-20
  0.732500017       6.94800243E-20
  0.733749986       3.70793468E-20
  0.735000014      -1.58685038E-21
  0.736249983      -4.37353622E-20
  0.737500012      -8.58810901E-20
  0.738749981      -1.24122290E-19
  0.740000010      -1.54520583E-19
  0.741249979      -1.73537736E-19
  0.742500007      -1.78477349E-19
  0.743749976      -1.67872415E-19
  0.745000005      -1.41760365E-19
  0.746249974      -1.01797098E-19
  0.747500002      -5.11799328E-20
  0.748749971       5.62611054E-21
  0.750000000       6.33366185E-20
  0.751250029       1.16422104E-19
  0.752499998       1.59738502E-19
  0.753750026       1.89131874E-19
  0.754999995       2.01934472E-19
  0.756250024       1.97281219E-19
  0.757499993       1.76198324E-19
  0.758750021       1.41447122E-19
  0.759999990       9.71414739E-20
  0.761250019       4.81903502E-20
  0.762499988      -3.55622257E-22
  0.763750017      -4.39594926E-20
  0.764999986      -7.91595949E-20
  0.766250014      -1.03955161E-19
  0.767499983      -1.17960350E-19
  0.768750012      -1.22306796E-19
  0.769999981      -1.19314018E-19
  0.771250010      -1.11984099E-19
  0.772499979      -1.03404885E-19
  0.773750007      -9.61606445E-20
  0.774999976      -9.18476537E-20
  0.776250005      -9.07747229E-20
  0.777499974      -9.18979760E-20
  0.778750002      -9.29999874E-20
  0.779999971      -9.10828864E-20
  0.781250000      -8.29095665E-20
  0.782500029      -6.56030288E-20
  0.783749998      -3.72053981E-20
  0.785000026       2.89339902E-21
  0.786249995       5.37232999E-20
  0.787500024       1.12729492E-19
  0.788749993       1.75987277E-19
  0.790000021       2.38591821E-19
  0.791249990       2.95151355E-19
  0.792500019       3.40300812E-19
  0.793749988       3.69157602E-19
  0.795000017       3.77663190E-19
  0.796249986       3.62786321E-19
  0.797500014       3.22600904E-19
  0.798749983       2.56284542E-19
  0.800000012       1.64104672E-19
  0.801249981       4.74621566E-20
  0.802500010      -9.09552809E-20
  0.803749979      -2.46894026E-19
  0.805000007      -4.14163646E-19
  0.806249976      -5.84259484E-19
  0.807500005      -7.46107555E-19
  0.808749974      -8.86084247E-19
  0.810000002      -9.88456947E-19
  0.811249971      -1.03635164E-18
  0.812500000      -1.01328002E-18
  0.813750029      -9.05163272E-19
  0.814999998      -7.02678557E-19
  0.816250026      -4.03655117E-19
  0.817499995      -1.51715830E-20
  0.818750024       4.45025754E-19
  0.819999993       9.48138613E-19
  0.821250021       1.45523662E-18
  0.822499990       1.91961034E-18
  0.823750019       2.29050592E-18
  0.824999988       2.51798824E-18
  0.826250017       2.55849259E-18
  0.827499986       2.38047133E-18
  0.828750014       1.96945769E-18
  0.829999983       1.33186863E-18
  0.831250012       4.96953879E-19
  0.832499981      -4.83523774E-19
  0.833750010      -1.53805270E-18
  0.834999979      -2.58047533E-18
  0.836250007      -3.51704251E-18
  0.837499976      -4.25478546E-18
  0.838750005      -4.71039075E-18
  0.839999974      -4.81867779E-18
  0.841250002      -4.53980171E-18
  0.842499971      -3.86442280E-18
  0.843750000      -2.81629418E-18
  0.845000029      -1.45198425E-18
  0.846249998       1.42257707E-19
  0.847500026       1.85621584E-18
  0.848749995       3.56349491E-18
  0.850000024       5.13071514E-18
  0.851249993       6.42738154E-18
  0.852500021       7.33568831E-18
  0.853749990       7.75959438E-18
  0.855000019       7.63261471E-18
  0.856249988       6.92389877E-18
  0.857500017       5.64228374E-18
  0.858749986       3.83810688E-18
  0.860000014       1.60263628E-18
  0.861249983      -9.34986235E-19
  0.862500012      -3.61334619E-18
  0.863749981      -6.24690066E-18
  0.865000010      -8.63656465E-18
  0.866249979      -1.05824764E-17
  0.867500007      -1.18984695E-17
  0.868749976      -1.24274962E-17
  0.870000005      -1.20569739E-17