 -0.200000003       0.00000000    
 -0.198750004       0.00000000    
 -0.197500005       0.00000000    
 -0.196250007       0.00000000    
 -0.194999993       0.00000000    
 -0.193749994       0.00000000    
 -0.192499995       0.00000000    
 -0.191249996       0.00000000    
 -0.189999998       0.00000000    
 -0.188749999      -9.98845545E-42
 -0.187500000      -1.43703158E-40
 -0.186250001      -1.20939624E-39
 -0.185000002      -8.32468958E-39
 -0.183750004      -5.12702878E-38
 -0.182500005      -2.79796121E-37
 -0.181250006      -1.32669495E-36
 -0.180000007      -5.44737384E-36
 -0.178749993      -1.95165410E-35
 -0.177499995      -6.17075874E-35
 -0.176249996      -1.74158224E-34
 -0.174999997      -4.43268313E-34
 -0.173749998      -1.02661120E-33
 -0.172499999      -2.18116962E-33
 -0.171250001      -4.28543620E-33
 -0.170000002      -7.85632833E-33
 -0.168750003      -1.35924043E-32
 -0.167500004      -2.25335361E-32
 -0.166250005      -3.64974363E-32
 -0.165000007      -5.89743106E-32
 -0.163749993      -9.65151215E-32
 -0.162499994      -1.60184168E-31
 -0.161249995      -2.65758608E-31
 -0.159999996      -4.30145827E-31
 -0.158749998      -6.60455404E-31
 -0.157499999      -9.32355381E-31
 -0.156250000      -1.15728049E-30
 -0.155000001      -1.14524794E-30
 -0.153750002      -5.81941315E-31
 -0.152500004       9.46673749E-31
 -0.151250005       3.83757528E-30
 -0.150000006       8.21934765E-30
 -0.148750007       1.35529375E-29
 -0.147499993       1.81385466E-29
 -0.146249995       1.86902353E-29
 -0.144999996       1.02698258E-29
 -0.143749997      -1.30212409E-29
 -0.142499998      -5.61837339E-29
 -0.141249999      -1.20066866E-28
 -0.140000001      -1.96935798E-28
 -0.138750002      -2.65809171E-28
 -0.137500003      -2.89435517E-28
 -0.136250004      -2.15629404E-28
 -0.135000005       1.39526357E-29
 -0.133750007       4.45178418E-28
 -0.132499993       1.08269917E-27
 -0.131249994       1.85474083E-27
 -0.129999995       2.58033687E-27
 -0.128749996       2.95344824E-27
 -0.127499998       2.56225296E-27
 -0.126249999       9.61423939E-28
 -0.125000000      -2.19219438E-27
 -0.123750001      -6.94617218E-27
 -0.122500002      -1.28313603E-26
 -0.121250004      -1.86720695E-26
 -0.119999997      -2.25128592E-26
 -0.118749999      -2.17600070E-26
 -0.117500000      -1.36227419E-26
 -0.116250001       4.10975847E-27
 -0.115000002       3.20086229E-26
 -0.113750003       6.78375697E-26
 -0.112499997       1.05584607E-25
 -0.111249998       1.35107160E-25
 -0.109999999       1.42838206E-25
 -0.108750001       1.13913055E-25
 -0.107500002       3.58333688E-26
 -0.106250003      -9.66163926E-26
 -0.104999997      -2.75999924E-25
 -0.103749998      -4.77737320E-25
 -0.102499999      -6.58214840E-25
 -0.101250000      -7.57302623E-25
 -0.100000001      -7.06688963E-25
  -9.87500027E-02  -4.44460997E-25
  -9.74999964E-02   6.51758606E-26
  -9.62499976E-02   8.10058436E-25
  -9.49999988E-02   1.71103358E-24
  -9.37500000E-02   2.61204665E-24
  -9.25000012E-02   3.28592674E-24
  -9.12500024E-02   3.46106766E-24
  -9.00000036E-02   2.87087763E-24
  -8.87499973E-02   1.32273228E-24
  -8.74999985E-02  -1.22315368E-24
  -8.62499997E-02  -4.58083126E-24
  -8.50000009E-02  -8.29224472E-24
  -8.37500021E-02  -1.16291335E-23
  -8.25000033E-02  -1.36611539E-23
  -8.12499970E-02  -1.33984854E-23
  -7.99999982E-02  -1.00020266E-23
  -7.87499994E-02  -3.03544624E-24
  -7.75000006E-02   7.28578600E-24
  -7.62500018E-02   1.99080646E-23
  -7.50000030E-02   3.28812277E-23
  -7.37499967E-02   4.34850960E-23
  -7.24999979E-02   4.85737663E-23
  -7.12499991E-02   4.51306598E-23
  -7.00000003E-02   3.09766871E-23
  -6.87500015E-02   5.52079453E-24
  -6.75000027E-02  -2.96016868E-23
  -6.62499964E-02  -7.01792876E-23
  -6.49999976E-02  -1.09527783E-22
  -6.37499988E-02  -1.39159014E-22
  -6.25000000E-02  -1.50034806E-22
  -6.12500012E-02  -1.34302774E-22
  -5.99999987E-02  -8.72764782E-23
  -5.87499999E-02  -9.30387995E-24
  -5.75000010E-02   9.29044012E-23
  -5.62499985E-02   2.05913434E-22
  -5.49999997E-02   3.10500272E-22
  -5.37500009E-02   3.84028242E-22
  -5.24999984E-02   4.04130084E-22
  -5.12499996E-02   3.53261708E-22
  -5.00000007E-02   2.23398365E-22
  -4.87499982E-02   1.99388570E-23
  -4.74999994E-02  -2.36171929E-22
  -4.62500006E-02  -5.08952457E-22
  -4.50000018E-02  -7.51025016E-22
  -4.37499993E-02  -9.10350634E-22
  -4.25000004E-02  -9.39375061E-22
  -4.12500016E-02  -8.05256237E-22
  -3.99999991E-02  -4.99333807E-22
  -3.87500003E-02  -4.37680351E-23
  -3.75000015E-02   5.06579766E-22
  -3.62499990E-02   1.06837394E-21
  -3.50000001E-02   1.54051151E-21
  -3.37500013E-02   1.82043005E-21
  -3.24999988E-02   1.82381572E-21
  -3.12500000E-02   1.50437789E-21
  -2.99999993E-02   8.69696000E-22
  -2.87500005E-02  -1.08232615E-23
  -2.74999999E-02  -1.00898031E-21
  -2.62499992E-02  -1.95323818E-21
  -2.50000004E-02  -2.65574292E-21
  -2.37499997E-02  -2.94749857E-21
  -2.25000009E-02  -2.71595586E-21
  -2.12500002E-02  -1.93768735E-21
  -1.99999996E-02  -6.98445985E-22
  -1.87500007E-02   8.05929078E-22
  -1.75000001E-02   2.29157060E-21
  -1.62499994E-02   3.43135601E-21
  -1.49999997E-02   3.91736703E-21
  -1.37499999E-02   3.53135036E-21
  -1.25000002E-02   2.20991681E-21
  -1.12500004E-02   8.97044785E-23
  -9.99999978E-03  -2.48105474E-21
  -8.75000004E-03  -4.97388307E-21
  -7.49999983E-03  -6.75664793E-21
  -6.25000009E-03  -7.20889923E-21
  -4.99999989E-03  -5.86018246E-21
  -3.74999992E-03  -2.52762969E-21
  -2.49999994E-03   2.57558597E-21
  -1.24999997E-03   8.78937562E-21
   0.00000000       1.50362291E-20
   1.24999997E-03   1.99426347E-20
   2.49999994E-03   2.20482553E-20
   3.74999992E-03   2.00806543E-20
   4.99999989E-03   1.32561041E-20
   6.25000009E-03   1.55389321E-21
   7.49999983E-03  -1.40941366E-20
   8.75000004E-03  -3.17528723E-20
   9.99999978E-03  -4.86109941E-20
   1.12500004E-02  -6.12995635E-20
   1.25000002E-02  -6.63834349E-20
   1.37499999E-02  -6.09715670E-20
   1.49999997E-02  -4.33604200E-20
   1.62499994E-02  -1.36022016E-20
   1.75000001E-02   2.61175477E-20
   1.87500007E-02   7.13967633E-20
   1.99999996E-02   1.15899662E-19
   2.12500002E-02   1.52027266E-19
   2.25000009E-02   1.71934608E-19
   2.37499997E-02   1.68787613E-19
   2.50000004E-02   1.38093202E-19
   2.62499992E-02   7.88951103E-20
   2.74999999E-02  -5.38577741E-21
   2.87500005E-02  -1.06666426E-19
   2.99999993E-02  -2.12614834E-19
   3.12500000E-02  -3.07814560E-19
   3.24999988E-02  -3.75621475E-19
   3.37500013E-02  -4.00533648E-19
   3.50000001E-02  -3.70785622E-19
   3.62499990E-02  -2.80797703E-19
   3.75000015E-02  -1.33076985E-19
   3.87500003E-02   6.08089226E-20
   3.99999991E-02   2.80478282E-19
   4.12500016E-02   4.98350056E-19
   4.25000004E-02   6.82588252E-19
   4.37499993E-02   8.01129800E-19
   4.50000018E-02   8.26351364E-19
   4.62500006E-02   7.39772386E-19
   4.74999994E-02   5.36104544E-19
   4.87499982E-02   2.25958834E-19
   5.00000007E-02  -1.63370523E-19
   5.12499996E-02  -5.89421246E-19
   5.24999984E-02  -9.98466246E-19
   5.37500009E-02  -1.33155678E-18
   5.49999997E-02  -1.53211623E-18
   5.62499985E-02  -1.55419710E-18
   5.75000010E-02  -1.37030751E-18
   5.87499999E-02  -9.77642284E-19
   5.99999987E-02  -4.01640028E-19
   6.12500012E-02   3.03962224E-19
   6.25000000E-02   1.06100493E-18
   6.37499988E-02   1.77463639E-18
   6.49999976E-02   2.34426935E-18
   6.62499964E-02   2.67661233E-18
   6.75000027E-02   2.69920180E-18
   6.87500015E-02   2.37261911E-18
   7.00000003E-02   1.69955899E-18
   7.12499991E-02   7.29157590E-19
   7.24999979E-02  -4.44527120E-19
   7.37499967E-02  -1.69029302E-18
   7.50000030E-02  -2.85342073E-18
   7.62500018E-02  -3.77389119E-18
   7.75000006E-02  -4.30717246E-18
   7.87499994E-02  -4.34500605E-18
   7.99999982E-02  -3.83336010E-18
   8.12499970E-02  -2.78484064E-18
   8.25000033E-02  -1.28334994E-18
   8.37500021E-02   5.20369914E-19
   8.50000009E-02   2.42253822E-18
   8.62499997E-02   4.18846419E-18
   8.74999985E-02   5.58074688E-18
   8.87499973E-02   6.39026554E-18
   9.00000036E-02   6.46601708E-18
   9.12500024E-02   5.73966730E-18
   9.25000012E-02   4.24107742E-18
   9.37500000E-02   2.10197574E-18
   9.49999988E-02  -4.53642857E-19
   9.62499976E-02  -3.13211877E-18
   9.74999964E-02  -5.60364738E-18
   9.87500027E-02  -7.54298473E-18
  0.100000001      -8.67233939E-18
  0.101250000      -8.80080136E-18
  0.102499999      -7.85472015E-18
  0.103749998      -5.89430996E-18
  0.104999997      -3.11335066E-18
  0.106250003       1.79029530E-19
  0.107500002       3.59307695E-18
  0.108750001       6.70584776E-18
  0.109999999       9.11555765E-18
  0.111249998       1.04957408E-17
  0.112499997       1.06417100E-17
  0.113750003       9.50248792E-18
  0.115000002       7.19302033E-18
  0.116250001       3.98402815E-18
  0.117500000       2.69878997E-19
  0.118749999      -3.48195061E-18
  0.119999997      -6.79342468E-18
  0.121250004      -9.24203274E-18
  0.122500002      -1.05209739E-17
  0.123750001      -1.04844092E-17
  0.125000000      -9.17047996E-18
  0.126249999      -6.79773305E-18
  0.127499998      -3.73436188E-18
  0.128749996      -4.43767044E-19
  0.129999995       2.58626414E-18
  0.131249994       4.92050621E-18
  0.132499993       6.24756240E-18
  0.133750007       6.43379054E-18
  0.135000005       5.55019331E-18
  0.136250004       3.86621240E-18
  0.137500003       1.80918690E-18
  0.138750002      -1.06330016E-19
  0.140000001      -1.37000393E-18
  0.141249999      -1.57434618E-18
  0.142499998      -5.04573401E-19
  0.143749997       1.79636332E-18
  0.144999996       5.00122787E-18
  0.146249995       8.51926630E-18
  0.147499993       1.15664566E-17
  0.148750007       1.32796874E-17
  0.150000006       1.28616221E-17
  0.151250005       9.73655191E-18
  0.152500004       3.69336102E-18
  0.153750002      -5.00920313E-18
  0.155000001      -1.55970844E-17
  0.156250000      -2.68110148E-17
  0.157499999      -3.70183739E-17
  0.158749998      -4.44014605E-17
  0.159999996      -4.72046399E-17
  0.161249995      -4.40117922E-17
  0.162499994      -3.40172104E-17
  0.163749993      -1.72492817E-17
  0.165000007       5.29225937E-18
  0.166250005       3.16174271E-17
  0.167500004       5.88646275E-17
  0.168750003       8.35591584E-17
  0.170000002       1.01994658E-16
  0.171250001       1.10701310E-16
  0.172499999       1.06948226E-16
  0.173749998       8.92162532E-17
  0.174999997       5.75735110E-17
  0.176249996       1.38910690E-17
  0.177499995      -3.81501886E-17
  0.178749993      -9.32883045E-17
  0.180000007      -1.45143529E-16
  0.181250006      -1.86884095E-16
  0.182500005      -2.12032450E-16
  0.183750004      -2.15324431E-16
  0.185000002      -1.93517660E-16
  0.186250001      -1.46040246E-16
  0.187500000      -7.53798376E-17
  0.188749999       1.28648456E-17
  0.189999998       1.10313051E-16
  0.191249996       2.06511159E-16
  0.192499995       2.89973789E-16
  0.193749994       3.49462130E-16
  0.194999993       3.75365880E-16
  0.196250007       3.61028974E-16
  0.197500005       3.03851285E-16
  0.198750004       2.06009490E-16
  0.200000003       7.46729489E-17
  0.201250002      -7.83593157E-17
  0.202500001      -2.37610450E-16
  0.203749999      -3.85405232E-16
  0.204999998      -5.03746640E-16
  0.206249997      -5.76399462E-16
  0.207499996      -5.90948841E-16
  0.208749995      -5.40586168E-16
  0.209999993      -4.25386087E-16
  0.211250007      -2.52879992E-16
  0.212500006      -3.78007610E-17
  0.213750005       1.99038197E-16
  0.215000004       4.32665409E-16
  0.216250002       6.36511008E-16
  0.217500001       7.85350632E-16
  0.218750000       8.58315744E-16
  0.219999999       8.41621836E-16
  0.221249998       7.30673014E-16
  0.222499996       5.31250859E-16
  0.223749995       2.59583543E-16
  0.224999994      -5.87916834E-17
  0.226249993      -3.91322895E-16
  0.227500007      -7.01705387E-16
  0.228750005      -9.53794886E-16
  0.230000004      -1.11575870E-15
  0.231250003      -1.16399649E-15
  0.232500002      -1.08635745E-15
  0.233750001      -8.84236381E-16
  0.234999999      -5.73233041E-16
  0.236249998      -1.82208990E-16
  0.237499997       2.49244262E-16
  0.238749996       6.74728393E-16
  0.239999995       1.04597738E-15
  0.241249993       1.31829794E-15
  0.242500007       1.45590638E-15
  0.243750006       1.43653463E-15
  0.245000005       1.25472663E-15
  0.246250004       9.23367133E-16
  0.247500002       4.73166686E-16
  0.248750001      -4.99524644E-17
  0.250000000      -5.89378283E-16
  0.251249999      -1.08381645E-15
  0.252499998      -1.47416238E-15
  0.253749996      -1.71048182E-15
  0.254999995      -1.75829069E-15
  0.256249994      -1.60336243E-15
  0.257499993      -1.25442234E-15
  0.258749992      -7.43301640E-16
  0.259999990      -1.22399715E-16
  0.261249989       5.40392144E-16
  0.262499988       1.16884427E-15
  0.263749987       1.68689205E-15
  0.264999986       2.02756479E-15
  0.266250014       2.14132004E-15
  0.267500013       2.00277425E-15
  0.268750012       1.61496329E-15
  0.270000011       1.01050226E-15
  0.271250010       2.49350512E-16
  0.272500008      -5.86736123E-16
  0.273750007      -1.40259127E-15
  0.275000006      -2.10003290E-15
  0.276250005      -2.58916267E-15
  0.277500004      -2.79930265E-15
  0.278750002      -2.68828458E-15
  0.280000001      -2.24892838E-15
  0.281250000      -1.51181945E-15
  0.282499999      -5.43875038E-16
  0.283749998       5.57347838E-16
  0.284999996       1.67316102E-15
  0.286249995       2.67616862E-15
  0.287499994       3.44432671E-15
  0.288749993       3.87511136E-15
  0.289999992       3.89818454E-15
  0.291249990       3.48504676E-15
  0.292499989       2.65443863E-15
  0.293749988       1.47268378E-15
  0.294999987       4.87054301E-17
  0.296249986      -1.47595735E-15
  0.297500014      -2.94123022E-15
  0.298750013      -4.18527450E-15
  0.300000012      -5.06218399E-15
  0.301250011      -5.45866656E-15
  0.302500010      -5.30781507E-15
  0.303750008      -4.59832080E-15
  0.305000007      -3.37794135E-15
  0.306250006      -1.75063573E-15
  0.307500005       1.32536860E-16
  0.308750004       2.08795146E-15
  0.310000002       3.91795429E-15
  0.311250001       5.43148019E-15
  0.312500000       6.46454190E-15
  0.313749999       6.89833627E-15
  0.314999998       6.67291836E-15
  0.316249996       5.79484123E-15
  0.317499995       4.33778744E-15
  0.318749994       2.43598565E-15
  0.319999993       2.70999695E-16
  0.321249992      -1.94676526E-15
  0.322499990      -3.99988609E-15
  0.323749989      -5.68671366E-15
  0.324999988      -6.84263073E-15
  0.326249987      -7.35741119E-15
  0.327499986      -7.18672643E-15
  0.328750014      -6.35648887E-15
  0.330000013      -4.95951809E-15
  0.331250012      -3.14488595E-15
  0.332500011      -1.10113637E-15
  0.333750010       9.64714093E-16
  0.335000008       2.84999503E-15
  0.336250007       4.37839758E-15
  0.337500006       5.41865272E-15
  0.338750005       5.89771804E-15
  0.340000004       5.80697159E-15
  0.341250002       5.20072978E-15
  0.342500001       4.18733194E-15
  0.343750000       2.91393416E-15
  0.344999999       1.54691594E-15
  0.346249998       2.50356999E-16
  0.347499996      -8.34712165E-16
  0.348749995      -1.60766208E-15
  0.349999994      -2.02000142E-15
  0.351249993      -2.07997072E-15
  0.352499992      -1.84936028E-15
  0.353749990      -1.43291007E-15
  0.354999989      -9.61618823E-16
  0.356249988      -5.72111464E-16
  0.357499987      -3.84784304E-16
  0.358749986      -4.83689006E-16
  0.360000014      -9.00983652E-16
  0.361250013      -1.60828073E-15
  0.362500012      -2.51640254E-15
  0.363750011      -3.48401655E-15
  0.365000010      -4.33447003E-15
  0.366250008      -4.87903514E-15
  0.367500007      -4.94384375E-15
  0.368750006      -4.39714708E-15
  0.370000005      -3.17330560E-15
  0.371250004      -1.29011016E-15
  0.372500002       1.14333227E-15
  0.373750001       3.92988517E-15
  0.375000000       6.79929313E-15
  0.376249999       9.43375322E-15
  0.377499998       1.15017918E-14
  0.378749996       1.26969282E-14
  0.379999995       1.27767881E-14
  0.381249994       1.15979842E-14
  0.382499993       9.14229087E-15
  0.383749992       5.53040220E-15
  0.384999990       1.02076248E-15
  0.386249989      -4.00743442E-15
  0.387499988      -9.08618426E-15
  0.388749987      -1.37028975E-14
  0.389999986      -1.73526880E-14
  0.391250014      -1.95933476E-14
  0.392500013      -2.00969866E-14
  0.393750012      -1.86924366E-14
  0.395000011      -1.53931958E-14
  0.396250010      -1.04070474E-14
  0.397500008      -4.12534014E-15
  0.398750007       2.90791429E-15
  0.400000006       1.00448129E-14
  0.401250005       1.65956540E-14
  0.402500004       2.18983682E-14
  0.403750002       2.53880626E-14
  0.405000001       2.66592676E-14
  0.406250000       2.55139690E-14
  0.407499999       2.19897173E-14
  0.408749998       1.63641565E-14
  0.409999996       9.13461252E-15
  0.411249995       9.74195886E-16
  0.412499994      -7.33173423E-15
  0.413749993      -1.49626676E-14
  0.414999992      -2.11456930E-14
  0.416249990      -2.52354798E-14
  0.417499989      -2.67828684E-14
  0.418749988      -2.55847166E-14
  0.419999987      -2.17091952E-14
  0.421249986      -1.54936353E-14
  0.422500014      -7.51413092E-15
  0.423750013       1.46991853E-15
  0.425000012       1.05912568E-14
  0.426250011       1.89625198E-14
  0.427500010       2.57673403E-14
  0.428750008       3.03449791E-14
  0.430000007       3.22600121E-14
  0.431250006       3.13490587E-14
  0.432500005       2.77397463E-14
  0.433750004       2.18394994E-14
  0.435000002       1.42952006E-14
  0.436250001       5.92716556E-15
  0.437500000      -2.35479606E-15
  0.438749999      -9.64575963E-15
  0.439999998      -1.51398940E-14
  0.441249996      -1.82149709E-14
  0.442499995      -1.84976631E-14
  0.443749994      -1.59036145E-14
  0.444999993      -1.06468374E-14
  0.446249992      -3.21869492E-15
  0.447499990       5.66274178E-15
  0.448749989       1.51271665E-14
  0.449999988       2.42422541E-14
  0.451249987       3.21108869E-14
  0.452499986       3.79655617E-14
  0.453750014       4.12481701E-14
  0.455000013       4.16697858E-14
  0.456250012       3.92422199E-14
  0.457500011       3.42785730E-14
  0.458750010       2.73639533E-14
  0.460000008       1.92970741E-14
  0.461250007       1.10108684E-14
  0.462500006       3.47876262E-15
  0.463750005      -2.38389948E-15
  0.465000004      -5.81122581E-15
  0.466250002      -6.26430755E-15
  0.467500001      -3.48741421E-15
  0.468750000       2.46493978E-15
  0.469999999       1.12301559E-14
  0.471249998       2.21710789E-14
  0.472499996       3.44326754E-14
  0.473749995       4.70231154E-14
  0.474999994       5.89034708E-14
  0.476249993       6.90840817E-14
  0.477499992       7.67166617E-14
  0.478749990       8.11725158E-14
  0.479999989       8.20989666E-14
  0.481249988       7.94549024E-14
  0.482499987       7.35125529E-14
  0.483749986       6.48340566E-14
  0.485000014       5.42230513E-14
  0.486250013       4.26612684E-14
  0.487500012       3.12215192E-14
  0.488750011       2.09803929E-14
  0.490000010       1.29290499E-14
  0.491250008       7.89472823E-15
  0.492500007       6.47545634E-15
  0.493750006       8.98385506E-15
  0.495000005       1.54252797E-14
  0.496250004       2.54970300E-14
  0.497500002       3.86045125E-14
  0.498750001       5.39095881E-14
  0.500000000       7.03881601E-14
  0.501250029       8.69044759E-14
  0.502499998       1.02298222E-13
  0.503750026       1.15469686E-13
  0.504999995       1.25459403E-13
  0.506250024       1.31524986E-13
  0.507499993       1.33196053E-13
  0.508750021       1.30320234E-13
  0.509999990       1.23090706E-13
  0.511250019       1.12026009E-13
  0.512499988       9.79562839E-14
  0.513750017       8.19577763E-14
  0.514999986       6.52863993E-14
  0.516250014       4.92740445E-14
  0.517499983       3.52458609E-14
  0.518750012       2.44127177E-14
  0.519999981       1.77646306E-14
  0.521250010       1.59896612E-14
  0.522499979       1.94087080E-14
  0.523750007       2.79186142E-14
  0.524999976       4.09953816E-14
  0.526250005       5.77358596E-14
  0.527499974       7.69098598E-14
  0.528750002       9.70294063E-14
  0.529999971       1.16497916E-13
  0.531250000       1.33727461E-13
  0.532500029       1.47289123E-13
  0.533749998       1.56019715E-13
  0.535000026       1.59173008E-13
  0.536249995       1.56479904E-13
  0.537500024       1.48175973E-13
  0.538749993       1.35011211E-13
  0.540000021       1.18156380E-13
  0.541249990       9.91400159E-14
  0.542500019       7.97046890E-14
  0.543749988       6.16337425E-14
  0.545000017       4.66076559E-14
  0.546249986       3.60508539E-14
  0.547500014       3.09133449E-14
  0.548749983       3.16312494E-14
  0.550000012       3.80641597E-14
  0.551249981       4.94963770E-14
  0.552500010       6.46928190E-14
  0.553749979       8.19922607E-14
  0.555000007       9.95185312E-14
  0.556249976       1.15321815E-13
  0.557500005       1.27576389E-13
  0.558749974       1.34822275E-13
  0.560000002       1.36063524E-13
  0.561249971       1.30918754E-13
  0.562500000       1.19677217E-13
  0.563750029       1.03233015E-13
  0.564999998       8.30752093E-14
  0.566250026       6.10595016E-14
  0.567499995       3.92664383E-14
  0.568750024       1.97345344E-14
  0.569999993       4.26359624E-15
  0.571250021      -5.74073361E-15
  0.572499990      -9.46717205E-15
  0.573750019      -6.77927012E-15
  0.574999988       1.79837737E-15
  0.576250017       1.51471836E-14
  0.577499986       3.15751860E-14
  0.578750014       4.91124543E-14
  0.579999983       6.57603109E-14
  0.581250012       7.95493432E-14
  0.582499981       8.89142072E-14
  0.583750010       9.27812853E-14
  0.584999979       9.08344038E-14
  0.586250007       8.34796709E-14
  0.587499976       7.18085395E-14
  0.588750005       5.75123784E-14
  0.589999974       4.26630133E-14
  0.591250002       2.95018526E-14
  0.592499971       2.01899790E-14
  0.593750000       1.65076709E-14
  0.595000029       1.96758910E-14
  0.596249998       3.01739157E-14
  0.597500026       4.76495776E-14
  0.598749995       7.10387288E-14
  0.600000024       9.85026541E-14
  0.601249993       1.27805711E-13
  0.602500021       1.56421046E-13
  0.603749990       1.81853759E-13
  0.605000019       2.01949040E-13
  0.606249988       2.15068780E-13
  0.607500017       2.20316319E-13
  0.608749986       2.17791551E-13
  0.610000014       2.08516974E-13
  0.611249983       1.94254741E-13
  0.612500012       1.77519715E-13
  0.613749981       1.61214493E-13
  0.615000010       1.48379112E-13
  0.616249979       1.41756480E-13
  0.617500007       1.43462445E-13
  0.618749976       1.54799554E-13
  0.620000005       1.76022825E-13
  0.621249974       2.06387275E-13
  0.622500002       2.44199057E-13
  0.623749971       2.86751336E-13
  0.625000000       3.30822880E-13
  0.626250029       3.72890548E-13
  0.627499998       4.09618357E-13
  0.628750026       4.38134744E-13
  0.629999995       4.56277052E-13
  0.631250024       4.62836204E-13
  0.632499993       4.57740562E-13
  0.633750021       4.41960243E-13
  0.634999990       4.17430630E-13
  0.636250019       3.86953165E-13
  0.637499988       3.53671140E-13
  0.638750017       3.20904111E-13
  0.639999986       2.91667569E-13
  0.641250014       2.68465751E-13
  0.642499983       2.52973288E-13
  0.643750012       2.45833681E-13
  0.644999981       2.46729015E-13
  0.646250010       2.54480464E-13
  0.647499979       2.67407407E-13
  0.648750007       2.83439884E-13
  0.649999976       3.00393689E-13
  0.651250005       3.16391824E-13
  0.652499974       3.29784702E-13
  0.653750002       3.39790912E-13
  0.654999971       3.46319653E-13
  0.656250000       3.50172690E-13
  0.657500029       3.52637244E-13
  0.658749998       3.55614301E-13
  0.660000026       3.61311323E-13
  0.661249995       3.71603735E-13
  0.662500024       3.88041731E-13
  0.663749993       4.11616813E-13
  0.665000021       4.42273225E-13
  0.666249990       4.79054947E-13
  0.667500019       5.19965906E-13
  0.668749988       5.62299447E-13
  0.670000017       6.02815595E-13
  0.671249986       6.38095859E-13
  0.672500014       6.65083494E-13
  0.673749983       6.80866062E-13
  0.675000012       6.83861876E-13
  0.676249981       6.73422852E-13
  0.677500010       6.50116300E-13
  0.678749979       6.16030827E-13
  0.680000007       5.74532717E-13
  0.681249976       5.29703777E-13
  0.682500005       4.86160970E-13
  0.683749974       4.48483969E-13
  0.685000002       4.20587285E-13
  0.686249971       4.05694846E-13
  0.687500000       4.05631502E-13
  0.688750029       4.20795045E-13
  0.689999998       4.49897796E-13
  0.691250026       4.90266790E-13
  0.692499995       5.38070185E-13
  0.693750024       5.88562944E-13
  0.694999993       6.36627198E-13
  0.696250021       6.77134401E-13
  0.697499990       7.05900562E-13
  0.698750019       7.19953556E-13
  0.699999988       7.17589183E-13
  0.701250017       6.98997067E-13
  0.702499986       6.65976280E-13
  0.703750014       6.21940542E-13
  0.704999983       5.71355083E-13
  0.706250012       5.19320372E-13
  0.707499981       4.71140867E-13
  0.708750010       4.31463730E-13
  0.709999979       4.03743038E-13
  0.711250007       3.90041650E-13
  0.712499976       3.90799724E-13
  0.713750005       4.04644986E-13
  0.714999974       4.28701860E-13
  0.716250002       4.58444751E-13
  0.717499971       4.88644444E-13
  0.718750000       5.13842278E-13
  0.720000029       5.28907864E-13
  0.721249998       5.29255838E-13
  0.722500026       5.11672681E-13
  0.723749995       4.74635793E-13
  0.725000024       4.18583923E-13
  0.726249993       3.46004340E-13
  0.727500021       2.61085776E-13
  0.728749990       1.68871468E-13
  0.730000019       7.51215225E-14
  0.731249988      -1.40635498E-14
  0.732500017      -9.33124360E-14
  0.733749986      -1.58028985E-13
  0.735000014      -2.05198841E-13
  0.736249983      -2.33522186E-13
  0.737500012      -2.43747215E-13
  0.738749981      -2.38171462E-13
  0.740000010      -2.20589687E-13
  0.741249979      -1.95666318E-13
  0.742500007      -1.68643243E-13
  0.743749976      -1.44545671E-13
  0.745000005      -1.27971865E-13
  0.746249974      -1.22455919E-13
  0.747500002      -1.30357070E-13
  0.748749971      -1.52373177E-13
  0.750000000      -1.87541985E-13
  0.751250029      -2.33659554E-13
  0.752499998      -2.87224102E-13
  0.753750026      -3.44318486E-13
  0.754999995      -4.00836997E-13
  0.756250024      -4.52692381E-13
  0.757499993      -4.96482304E-13
  0.758750021      -5.29871828E-13
  0.759999990      -5.51291055E-13
  0.761250019      -5.60289933E-13
  0.762499988      -5.57993484E-13
  0.763750017      -5.46047691E-13
  0.764999986      -5.26765263E-13
  0.766250014      -5.02851233E-13
  0.767499983      -4.77221127E-13
  0.768750012      -4.52227692E-13
  0.769999981      -4.29517370E-13
  0.771250010      -4.10225022E-13
  0.772499979      -3.94894322E-13
  0.773750007      -3.83560425E-13
  0.774999976      -3.75739939E-13
  0.776250005      -3.70582308E-13
  0.777499974      -3.67313791E-13
  0.778750002      -3.65273079E-13
  0.779999971      -3.64437240E-13
  0.781250000      -3.65466636E-13
  0.782500029      -3.69085865E-13
  0.783749998      -3.76638282E-13
  0.785000026      -3.88874913E-13
  0.786249995      -4.06797588E-13
  0.787500024      -4.30622118E-13
  0.788749993      -4.59784717E-13
  0.790000021      -4.92987758E-13
  0.791249990      -5.27781540E-13
  0.792500019      -5.60499509E-13
  0.793749988      -5.86875004E-13
  0.795000017      -6.02345810E-13
  0.796249986      -6.01929693E-13
  0.797500014      -5.81444181E-13
  0.798749983      -5.37977269E-13
  0.800000012      -4.70013622E-13
  0.801249981      -3.78115643E-13
  0.802500010      -2.64847145E-13
  0.803749979      -1.35186743E-13
  0.805000007       3.93088382E-15
  0.806249976       1.44347574E-13
  0.807500005       2.77201764E-13
  0.808749974       3.93501204E-13
  0.810000002       4.84951814E-13
  0.811249971       5.45257578E-13
  0.812500000       5.70309967E-13
  0.813750029       5.58783976E-13
  0.814999998       5.12543567E-13
  0.816250026       4.36199633E-13
  0.817499995       3.37035575E-13
  0.818750024       2.24256337E-13
  0.819999993       1.08120612E-13
  0.821250021      -7.07330903E-16
  0.822499990      -9.23596052E-14
  0.823750019      -1.58279910E-13
  0.824999988      -1.92444693E-13
  0.826250017      -1.91898309E-13
  0.827499986      -1.56814611E-13
  0.828750014      -9.07323465E-14
  0.829999983      -1.19015382E-16
  0.831250012       1.06778301E-13
  0.832499981       2.20104669E-13
  0.833750010       3.30038351E-13
  0.834999979       4.28063509E-13
  0.836250007       5.06768618E-13
  0.837499976       5.61224082E-13
  0.838750005       5.89351918E-13
  0.839999974       5.92556657E-13
  0.841250002       5.74828867E-13
  0.842499971       5.42459036E-13
  0.843750000       5.03112797E-13
  0.845000029       4.65226273E-13
  0.846249998       4.36955485E-13
  0.847500026       4.25181917E-13
  0.848749995       4.34530043E-13
  0.850000024       4.66970321E-13
  0.851249993       5.21292807E-13
  0.852500021       5.93401901E-13
  0.853749990       6.76367165E-13
  0.855000019       7.61630396E-13
  0.856249988       8.39469011E-13
  0.857500017       9.00659701E-13
  0.858749986       9.37030401E-13
  0.860000014       9.42385059E-13
  0.861249983       9.13365304E-13
  0.862500012       8.49789857E-13
  0.863749981       7.54475584E-13
  0.865000010       6.33478404E-13
  0.866249979       4.94763410E-13
  0.867500007       3.48193371E-13
  0.868749976       2.04177997E-13
  0.870000005       7.25694935E-14