 -0.200000003       0.00000000    
 -0.198750004       0.00000000    
 -0.197500005       0.00000000    
 -0.196250007       0.00000000    
 -0.194999993       0.00000000    
 -0.193749994       0.00000000    
 -0.192499995       0.00000000    
 -0.191249996       0.00000000    
 -0.189999998       0.00000000    
 -0.188749999       0.00000000    
 -0.187500000       0.00000000    
 -0.186250001       0.00000000    
 -0.185000002       0.00000000    
 -0.183750004       0.00000000    
 -0.182500005       0.00000000    
 -0.181250006       0.00000000    
 -0.180000007       0.00000000    
 -0.178749993       0.00000000    
 -0.177499995       0.00000000    
 -0.176249996       0.00000000    
 -0.174999997       0.00000000    
 -0.173749998       0.00000000    
 -0.172499999       0.00000000    
 -0.171250001       0.00000000    
 -0.170000002       0.00000000    
 -0.168750003       0.00000000    
 -0.167500004       0.00000000    
 -0.166250005       0.00000000    
 -0.165000007       0.00000000    
 -0.163749993       0.00000000    
 -0.162499994       0.00000000    
 -0.161249995       0.00000000    
 -0.159999996       0.00000000    
 -0.158749998       0.00000000    
 -0.157499999       0.00000000    
 -0.156250000       0.00000000    
 -0.155000001       0.00000000    
 -0.153750002       0.00000000    
 -0.152500004       0.00000000    
 -0.151250005       0.00000000    
 -0.150000006       0.00000000    
 -0.148750007       0.00000000    
 -0.147499993       1.40129846E-45
 -0.146249995       2.80259693E-45
 -0.144999996       5.60519386E-45
 -0.143749997       9.80908925E-45
 -0.142499998       1.12103877E-44
 -0.141249999       7.00649232E-45
 -0.140000001      -1.40129846E-44
 -0.138750002      -6.58610278E-44
 -0.137500003      -1.68155816E-43
 -0.136250004      -3.29305139E-43
 -0.135000005      -5.28289521E-43
 -0.133750007      -6.79629755E-43
 -0.132499993      -5.71729773E-43
 -0.131249994       1.83570099E-43
 -0.129999995       2.18182171E-42
 -0.128749996       6.14889766E-42
 -0.127499998       1.26369096E-41
 -0.126249999       2.13950250E-41
 -0.125000000       3.02498299E-41
 -0.123750001       3.35428813E-41
 -0.122500002       2.04099121E-41
 -0.121250004      -2.62981683E-41
 -0.119999997      -1.28941879E-40
 -0.118749999      -3.09626705E-40
 -0.117500000      -5.77606819E-40
 -0.116250001      -9.07281901E-40
 -0.115000002      -1.20659365E-39
 -0.113750003      -1.28037762E-39
 -0.112499997      -8.01007426E-40
 -0.111249998       6.90730842E-40
 -0.109999999       3.72048806E-39
 -0.108750001       8.70970615E-39
 -0.107500002       1.56626633E-38
 -0.106250003       2.36999619E-38
 -0.104999997       3.04837319E-38
 -0.103749998       3.16729298E-38
 -0.102499999       2.06718905E-38
 -0.101250000      -1.09311482E-38
 -0.100000001      -7.17433369E-38
  -9.87500027E-02  -1.67288322E-37
  -9.74999964E-02  -2.94813848E-37
  -9.62499976E-02  -4.36446985E-37
  -9.49999988E-02  -5.51824833E-37
  -9.37500000E-02  -5.72509568E-37
  -9.25000012E-02  -4.01812671E-37
  -9.12500024E-02   7.52749733E-38
  -9.00000036E-02   9.67094409E-37
  -8.87499973E-02   2.33161930E-36
  -8.74999985E-02   4.11397409E-36
  -8.62499997E-02   6.07145559E-36
  -8.50000009E-02   7.70135915E-36
  -8.37500021E-02   8.19753413E-36
  -8.25000033E-02   6.47146805E-36
  -8.12499970E-02   1.27913447E-36
  -7.99999982E-02  -8.50894543E-36
  -7.87499994E-02  -2.34749364E-35
  -7.75000006E-02  -4.30748454E-35
  -7.62500018E-02  -6.49851561E-35
  -7.50000030E-02  -8.45162014E-35
  -7.37499967E-02  -9.43065885E-35
  -7.24999979E-02  -8.45708607E-35
  -7.12499991E-02  -4.41897169E-35
  -7.00000003E-02   3.71202835E-35
  -6.87500015E-02   1.65467808E-34
  -6.75000027E-02   3.38446657E-34
  -6.62499964E-02   5.40323555E-34
  -6.49999976E-02   7.37712245E-34
  -6.37499988E-02   8.77119079E-34
  -6.25000000E-02   8.86062754E-34
  -6.12500012E-02   6.79547682E-34
  -5.99999987E-02   1.73364639E-34
  -5.87499999E-02  -6.95113340E-34
  -5.75000010E-02  -1.93935023E-33
  -5.62499985E-02  -3.49191727E-33
  -5.49999997E-02  -5.17356810E-33
  -5.37500009E-02  -6.67050800E-33
  -5.24999984E-02  -7.52932491E-33
  -5.12499996E-02  -7.18022145E-33
  -5.00000007E-02  -4.99871589E-33
  -4.87499982E-02  -4.13230483E-34
  -4.74999994E-02   6.93975204E-33
  -4.62500006E-02   1.70203192E-32
  -4.50000018E-02   2.91692781E-32
  -4.37499993E-02   4.19065793E-32
  -4.25000004E-02   5.27947662E-32
  -4.12500016E-02   5.84326663E-32
  -3.99999991E-02   5.46531287E-32
  -3.87500003E-02   3.69963807E-32
  -3.75000015E-02   1.51118027E-33
  -3.62499990E-02  -5.41062241E-32
  -3.50000001E-02  -1.29094929E-31
  -3.37500013E-02  -2.18090219E-31
  -3.24999988E-02  -3.09736719E-31
  -3.12500000E-02  -3.85851131E-31
  -2.99999993E-02  -4.21633931E-31
  -2.87500005E-02  -3.87472537E-31
  -2.74999999E-02  -2.52816415E-31
  -2.62499992E-02   7.60644468E-33
  -2.50000004E-02   4.05359870E-31
  -2.37499997E-02   9.28373841E-31
  -2.25000009E-02   1.53098481E-30
  -2.12500002E-02   2.12620841E-30
  -1.99999996E-02   2.58320601E-30
  -1.87500007E-02   2.73326661E-30
  -1.75000001E-02   2.38738408E-30
  -1.62499994E-02   1.36740481E-30
  -1.49999997E-02  -4.49414953E-31
  -1.37499999E-02  -3.07579946E-30
  -1.25000002E-02  -6.35713965E-30
  -1.12500004E-02  -9.92308020E-30
  -9.99999978E-03  -1.31632301E-29
  -8.75000004E-03  -1.52440364E-29
  -7.49999983E-03  -1.51826068E-29
  -6.25000009E-03  -1.19877787E-29
  -4.99999989E-03  -4.86834164E-30
  -3.74999992E-03   6.50673927E-30
  -2.49999994E-03   2.17297304E-29
  -1.24999997E-03   3.94098049E-29
   0.00000000       5.70312153E-29
   1.24999997E-03   7.09891518E-29
   2.49999994E-03   7.68719169E-29
   3.74999992E-03   7.00332346E-29
   4.99999989E-03   4.64541645E-29
   6.25000009E-03   3.83127200E-30
   7.49999983E-03  -5.72463718E-29
   8.75000004E-03  -1.32242812E-28
   9.99999978E-03  -2.12012700E-28
   1.12500004E-02  -2.82821994E-28
   1.25000002E-02  -3.27312444E-28
   1.37499999E-02  -3.26572117E-28
   1.49999997E-02  -2.63305246E-28
   1.62499994E-02  -1.25865227E-28
   1.75000001E-02   8.73493730E-29
   1.87500007E-02   3.63890765E-28
   1.99999996E-02   6.74593219E-28
   2.12500002E-02   9.73244334E-28
   2.25000009E-02   1.19947764E-27
   2.37499997E-02   1.28542275E-27
   2.50000004E-02   1.16608260E-27
   2.62499992E-02   7.92656239E-28
   2.74999999E-02   1.47190544E-28
   2.87500005E-02  -7.43840511E-28
   2.99999993E-02  -1.79998395E-27
   3.12500000E-02  -2.88438612E-27
   3.24999988E-02  -3.81118425E-27
   3.37500013E-02  -4.36432712E-27
   3.50000001E-02  -4.32774524E-27
   3.62499990E-02  -3.52460164E-27
   3.75000015E-02  -1.86098951E-27
   3.87500003E-02   6.32729135E-28
   3.99999991E-02   3.77121889E-27
   4.12500016E-02   7.20269064E-27
   4.25000004E-02   1.04240188E-26
   4.37499993E-02   1.28269022E-26
   4.50000018E-02   1.37750090E-26
   4.62500006E-02   1.27064052E-26
   4.74999994E-02   9.24951660E-27
   4.87499982E-02   3.33560859E-27
   5.00000007E-02  -4.71282491E-27
   5.12499996E-02  -1.41388896E-26
   5.24999984E-02  -2.37714344E-26
   5.37500009E-02  -3.21195287E-26
   5.49999997E-02  -3.75418258E-26
   5.62499985E-02  -3.84784132E-26
   5.75000010E-02  -3.37195451E-26
   5.87499999E-02  -2.26740087E-26
   5.99999987E-02  -5.59285434E-27
   6.12500012E-02   1.62967354E-26
   6.25000000E-02   4.07856834E-26
   6.37499988E-02   6.48289959E-26
   6.49999976E-02   8.48459531E-26
   6.62499964E-02   9.71521032E-26
   6.75000027E-02   9.84760151E-26
   6.87500015E-02   8.64936124E-26
   7.00000003E-02   6.03016677E-26
   7.12499991E-02   2.07529336E-26
   7.24999979E-02  -2.94107868E-26
   7.37499967E-02  -8.56651421E-26
   7.50000030E-02  -1.42052427E-25
   7.62500018E-02  -1.91739447E-25
   7.75000006E-02  -2.27717716E-25
   7.87499994E-02  -2.43557896E-25
   7.99999982E-02  -2.34125757E-25
   8.12499970E-02  -1.96179994E-25
   8.25000033E-02  -1.28801166E-25
   8.37500021E-02  -3.36400612E-26
   8.50000009E-02   8.49883734E-26
   8.62499997E-02   2.20113369E-25
   8.74999985E-02   3.62163207E-25
   8.87499973E-02   4.99037008E-25
   9.00000036E-02   6.16217020E-25
   9.12500024E-02   6.97019599E-25
   9.25000012E-02   7.23155842E-25
   9.37500000E-02   6.75825568E-25
   9.49999988E-02   5.37567489E-25
   9.62499976E-02   2.95014380E-25
   9.74999964E-02  -5.74583172E-26
   9.87500027E-02  -5.13445651E-25
  0.100000001      -1.05014160E-24
  0.101250000      -1.62473989E-24
  0.102499999      -2.17270417E-24
  0.103749998      -2.60910163E-24
  0.104999997      -2.83406997E-24
  0.106250003      -2.74309814E-24
  0.107500002      -2.24211940E-24
  0.108750001      -1.26649291E-24
  0.109999999       1.98117153E-25
  0.111249998       2.09600086E-24
  0.112499997       4.28665517E-24
  0.113750003       6.53925064E-24
  0.115000002       8.54024366E-24
  0.116250001       9.91697002E-24
  0.117500000       1.02781579E-23
  0.118749999       9.26966232E-24
  0.119999997       6.64065161E-24
  0.121250004       2.31237851E-24
  0.122500002      -3.56090353E-24
  0.123750001      -1.05508671E-23
  0.125000000      -1.79457415E-23
  0.126249999      -2.47824487E-23
  0.127499998      -2.99258455E-23
  0.128749996      -3.21945463E-23
  0.129999995      -3.05253040E-23
  0.131249994      -2.41599759E-23
  0.132499993      -1.28318631E-23
  0.133750007       3.07704327E-24
  0.135000005       2.24382507E-23
  0.136250004       4.33664260E-23
  0.137500003       6.33173904E-23
  0.138750002       7.93034800E-23
  0.140000001       8.82197728E-23
  0.141249999       8.72568514E-23
  0.142499998       7.43582814E-23
  0.143749997       4.86661672E-23
  0.144999996       1.08888751E-23
  0.146249995      -3.64763540E-23
  0.147499993      -8.91250065E-23
  0.148750007      -1.41172263E-22
  0.150000006      -1.85639368E-22
  0.151250005      -2.15179747E-22
  0.152500004      -2.22988663E-22
  0.153750002      -2.03805307E-22
  0.155000001      -1.54888585E-22
  0.156250000      -7.68315054E-23
  0.157499999       2.59206046E-23
  0.158749998       1.44965283E-22
  0.159999996       2.68332059E-22
  0.161249995       3.81393826E-22
  0.162499994       4.68265208E-22
  0.163749993       5.13585103E-22
  0.165000007       5.04515853E-22
  0.166250005       4.32741022E-22
  0.167500004       2.96213029E-22
  0.168750003       1.00398706E-22
  0.170000002      -1.41202038E-22
  0.171250001      -4.07430148E-22
  0.172499999      -6.70814396E-22
  0.173749998      -8.99865575E-22
  0.174999997      -1.06217766E-21
  0.176249996      -1.12808190E-21
  0.177499995      -1.07450479E-21
  0.178749993      -8.88613111E-22
  0.180000007      -5.70801778E-22
  0.181250006      -1.36597261E-22
  0.182500005       3.82880999E-22
  0.183750004       9.42145894E-22
  0.185000002       1.48434441E-21
  0.186250001       1.94594603E-21
  0.187500000       2.26283092E-21
  0.188749999       2.37730981E-21
  0.189999998       2.24544195E-21
  0.191249996       1.84390453E-21
  0.192499995       1.17561106E-21
  0.193749994       2.73300520E-22
  0.194999993      -7.99582901E-22
  0.196250007      -1.95120759E-21
  0.197500005      -3.06709605E-21
  0.198750004      -4.01918901E-21
  0.200000003      -4.67776412E-21
  0.201250002      -4.92536174E-21
  0.202500001      -4.67152957E-21
  0.203749999      -3.86691265E-21
  0.204999998      -2.51505134E-21
  0.206249997      -6.80227463E-22
  0.207499996       1.51014019E-21
  0.208749995       3.86969833E-21
  0.209999993       6.16456877E-21
  0.211250007       8.13186558E-21
  0.212500006       9.50440621E-21
  0.213750005       1.00398433E-20
  0.215000004       9.55164598E-21
  0.216250002       7.93870922E-21
  0.217500001       5.20998295E-21
  0.218750000       1.50051219E-21
  0.219999999      -2.92435650E-21
  0.221249998      -7.67896481E-21
  0.222499996      -1.22826385E-20
  0.223749995      -1.61997652E-20
  0.224999994      -1.88923286E-20
  0.226249993      -1.98807012E-20
  0.227500007      -1.88069157E-20
  0.228750005      -1.54933982E-20
  0.230000004      -9.98963246E-21
  0.231250003      -2.59953624E-21
  0.232500002       6.11651393E-21
  0.233750001       1.53689205E-20
  0.234999999       2.41964046E-20
  0.236249998       3.15514635E-20
  0.237499997       3.64077084E-20
  0.238749996       3.78796472E-20
  0.239999995       3.53426875E-20
  0.241249993       2.85394986E-20
  0.242500007       1.76585338E-20
  0.243750006       3.37198359E-21
  0.245000005      -1.31765413E-20
  0.246250004      -3.04396940E-20
  0.247500002      -4.65887476E-20
  0.248750001      -5.96834917E-20
  0.250000000      -6.78762309E-20
  0.251249999      -6.96308038E-20
  0.252499998      -6.39336038E-20
  0.253749996      -5.04716982E-20
  0.254999995      -2.97539936E-20
  0.256249994      -3.15503003E-21
  0.257499993       2.71325161E-20
  0.258749992       5.82419679E-20
  0.259999990       8.68684529E-20
  0.261249989       1.09580597E-19
  0.262499988       1.23182147E-19
  0.263749987       1.25089302E-19
  0.264999986       1.13683813E-19
  0.266250014       8.86007048E-20
  0.267500013       5.09118519E-20
  0.268750012       3.17414788E-21
  0.270000011      -5.06775724E-20
  0.271250010      -1.05597961E-19
  0.272500008      -1.55847303E-19
  0.273750007      -1.95527428E-19
  0.275000006      -2.19192729E-19
  0.276250005      -2.22478989E-19
  0.277500004      -2.02684854E-19
  0.278750002      -1.59239700E-19
  0.280000001      -9.39961131E-20
  0.281250000      -1.12984366E-20
  0.282499999       8.22030767E-20
  0.283749998       1.77999083E-19
  0.284999996       2.66408767E-19
  0.286249995       3.37461204E-19
  0.287499994       3.81897941E-19
  0.288749993       3.92205309E-19
  0.289999992       3.63572142E-19
  0.291249990       2.94666395E-19
  0.292499989       1.88132511E-19
  0.293749988       5.07306542E-20
  0.294999987      -1.06931945E-19
  0.296249986      -2.71089808E-19
  0.297500014      -4.25898780E-19
  0.298750013      -5.54833309E-19
  0.300000012      -6.42289926E-19
  0.301250011      -6.75252453E-19
  0.302500010      -6.44856254E-19
  0.303750008      -5.47681970E-19
  0.305000007      -3.86623443E-19
  0.306250006      -1.71201378E-19
  0.307500005       8.27589227E-20
  0.308750004       3.54111471E-19
  0.310000002       6.17995580E-19
  0.311250001       8.47957839E-19
  0.312500000       1.01842250E-18
  0.313749999       1.10729323E-18
  0.314999998       1.09843743E-18
  0.316249996       9.83794337E-19
  0.317499995       7.64865892E-19
  0.318749994       4.53390050E-19
  0.319999993       7.10616324E-20
  0.321249992      -3.51747957E-19
  0.322499990      -7.78227444E-19
  0.323749989      -1.16817259E-18
  0.324999988      -1.48160797E-18
  0.326249987      -1.68266921E-18
  0.327499986      -1.74338633E-18
  0.328750014      -1.64698670E-18
  0.330000013      -1.39035929E-18
  0.331250012      -9.85376010E-19
  0.332500011      -4.58857197E-19
  0.333750010       1.48914069E-19
  0.335000008       7.87085772E-19
  0.336250007       1.39835803E-18
  0.337500006       1.92401383E-18
  0.338750005       2.30943244E-18
  0.340000004       2.50958037E-18
  0.341250002       2.49394355E-18
  0.342500001       2.25038311E-18
  0.343750000       1.78746493E-18
  0.344999999       1.13493730E-18
  0.346249998       3.42189601E-19
  0.347499996      -5.25288123E-19
  0.348749995      -1.39122504E-18
  0.349999994      -2.17525940E-18
  0.351249993      -2.80042617E-18
  0.352499992      -3.20075615E-18
  0.353749990      -3.32824205E-18
  0.354999989      -3.15844462E-18
  0.356249988      -2.69410079E-18
  0.357499987      -1.96625588E-18
  0.358749986      -1.03265920E-18
  0.360000014       2.65751918E-20
  0.361250013       1.11576738E-18
  0.362500012       2.13238559E-18
  0.363750011       2.97690226E-18
  0.365000010       3.56285632E-18
  0.366250008       3.82610324E-18
  0.367500007       3.73226126E-18
  0.368750006       3.28148525E-18
  0.370000005       2.50992240E-18
  0.371250004       1.48751765E-18
  0.372500002       3.12193654E-19
  0.373750001      -8.99183790E-19
  0.375000000      -2.02228020E-18
  0.376249999      -2.93812775E-18
  0.377499998      -3.54602816E-18
  0.378749996      -3.77515099E-18
  0.379999995      -3.59350502E-18
  0.381249994      -3.01316668E-18
  0.382499993      -2.09098520E-18
  0.383749992      -9.24423552E-19
  0.384999990       3.57296452E-19
  0.386249989       1.60605729E-18
  0.387499988       2.67054930E-18
  0.388749987       3.41326319E-18
  0.389999986       3.72697930E-18
  0.391250014       3.54890758E-18
  0.392500013       2.87075947E-18
  0.393750012       1.74337889E-18
  0.395000011       2.75050427E-19
  0.396250010      -1.37675341E-18
  0.397500008      -3.01973284E-18
  0.398750007      -4.44607801E-18
  0.400000006      -5.45497366E-18
  0.401250005      -5.87605574E-18
  0.402500004      -5.59133521E-18
  0.403750002      -4.55308292E-18
  0.405000001      -2.79543951E-18
  0.406250000      -4.38026256E-19
  0.407499999       2.31944173E-18
  0.408749998       5.21165104E-18
  0.409999996       7.93045516E-18
  0.411249995       1.01541383E-17
  0.412499994       1.15805981E-17
  0.413749993       1.19612873E-17
  0.414999992       1.11324250E-17
  0.416249990       9.04004433E-18
  0.417499989       5.75579898E-18
  0.418749988       1.48119893E-18
  0.419999987      -3.46107423E-18
  0.421249986      -8.64888964E-18
  0.422500014      -1.35942576E-17
  0.423750013      -1.77863353E-17
  0.425000012      -2.07402651E-17
  0.426250011      -2.20474471E-17
  0.427500010      -2.14223434E-17
  0.428750008      -1.87409381E-17
  0.430000007      -1.40664081E-17
  0.431250006      -7.65850547E-18
  0.432500005       3.54936254E-20
  0.433750004       8.40879385E-18
  0.435000002       1.67407228E-17
  0.436250001       2.42568812E-17
  0.437500000       3.01990341E-17
  0.438749999       3.38986721E-17
  0.439999998       3.48473325E-17
  0.441249996       3.27566864E-17
  0.442499995       2.76017763E-17
  0.443749994       1.96419943E-17
  0.444999993       9.41624276E-18
  0.446249992      -2.28914376E-18
  0.447499990      -1.44984529E-17
  0.448749989      -2.61267958E-17
  0.449999988      -3.60761722E-17
  0.451249987      -4.33391091E-17
  0.452499986      -4.71003093E-17
  0.453750014      -4.68261783E-17
  0.455000013      -4.23327744E-17
  0.456250012      -3.38240406E-17
  0.457500011      -2.18946966E-17
  0.458750010      -7.49525807E-18
  0.460000008       8.13977569E-18
  0.461250007       2.35957538E-17
  0.462500006       3.74054481E-17
  0.463750005       4.81891900E-17
  0.465000004       5.47943926E-17
  0.466250002       5.64205801E-17
  0.467500001       5.27165414E-17
  0.468750000       4.38383490E-17
  0.469999999       3.04600459E-17
  0.471249998       1.37331693E-17
  0.472499996      -4.80375008E-18
  0.473749995      -2.33596185E-17
  0.474999994      -4.00580807E-17
  0.476249993      -5.31227764E-17
  0.477499992      -6.10628566E-17
  0.478749990      -6.28400443E-17
  0.479999989      -5.79992046E-17
  0.481249988      -4.67471263E-17
  0.482499987      -2.99683830E-17
  0.483749986      -9.17298218E-18
  0.485000014       1.36229988E-17
  0.486250013       3.60757255E-17
  0.487500012       5.57363561E-17
  0.488750011       7.02984142E-17
  0.490000010       7.78461726E-17
  0.491250008       7.70790321E-17
  0.492500007       6.74875883E-17
  0.493750006       4.94605401E-17
  0.495000005       2.43071192E-17
  0.496250004      -5.81276691E-18
  0.497500002      -3.80497788E-17
  0.498750001      -6.91077241E-17
  0.500000000      -9.55487046E-17
  0.501250029      -1.14134593E-16
  0.502499998      -1.22173319E-16
  0.503750026      -1.17835796E-16
  0.504999995      -1.00410012E-16
  0.506250024      -7.04626724E-17
  0.507499993      -2.98857543E-17
  0.508750021       1.81848130E-17
  0.509999990       6.95797332E-17
  0.511250019       1.19424949E-16
  0.512499988       1.62564919E-16
  0.513750017       1.94046262E-16
  0.514999986       2.09619545E-16
  0.516250014       2.06211799E-16
  0.517499983       1.82322333E-16
  0.518750012       1.38297915E-16
  0.519999981       7.64523005E-17
  0.521250010       1.00705486E-18
  0.522499979      -8.21538976E-17
  0.523750007      -1.65906305E-16
  0.524999976      -2.42457278E-16
  0.526250005      -3.04023709E-16
  0.527499974      -3.43561249E-16
  0.528750002      -3.55479187E-16
  0.529999971      -3.36273536E-16
  0.531250000      -2.85013299E-16
  0.532500029      -2.03624153E-16
  0.533749998      -9.69294345E-17
  0.535000026       2.75727952E-17
  0.536249995       1.60194047E-16
  0.537500024       2.89774498E-16
  0.538749993       4.04586875E-16
  0.540000021       4.93354870E-16
  0.541249990       5.46300570E-16
  0.542500019       5.56127634E-16
  0.543749988       5.18846379E-16
  0.545000017       4.34355663E-16
  0.546249986       3.06713621E-16
  0.547500014       1.44052458E-16
  0.548749983      -4.18770839E-17
  0.550000012      -2.36513648E-16
  0.551249981      -4.23595089E-16
  0.552500010      -5.86489001E-16
  0.553749979      -7.09638380E-16
  0.555000007      -7.80000030E-16
  0.556249976      -7.88347117E-16
  0.557500005      -7.30311754E-16
  0.558749974      -6.07059725E-16
  0.560000002      -4.25515313E-16
  0.561249971      -1.98091082E-16
  0.562500000       5.80829749E-17
  0.563750029       3.22390772E-16
  0.564999998       5.72340004E-16
  0.566250026       7.85429564E-16
  0.567499995       9.41124438E-16
  0.568750024       1.02277047E-15
  0.569999993       1.01927657E-15
  0.571250021       9.26403005E-16
  0.572499990       7.47521717E-16
  0.573750019       4.93749905E-16
  0.574999988       1.83412213E-16
  0.576250017      -1.59159952E-16
  0.577499986      -5.05424030E-16
  0.578750014      -8.24892353E-16
  0.579999983      -1.08769682E-15
  0.581250012      -1.26724430E-15
  0.582499981      -1.34273590E-15
  0.583750010      -1.30132255E-15
  0.584999979      -1.13968770E-15
  0.586250007      -8.64887396E-16
  0.587499976      -4.94333140E-16
  0.588750005      -5.48712013E-17
  0.589999974       4.19012191E-16
  0.591250002       8.87751515E-16
  0.592499971       1.30984857E-15
  0.593750000       1.64536404E-15
  0.595000029       1.85946919E-15
  0.596249998       1.92575439E-15
  0.597500026       1.82899104E-15
  0.598749995       1.56708168E-15
  0.600000024       1.15198217E-15
  0.601249993       6.09462493E-16
  0.602500021      -2.23363151E-17
  0.603749990      -6.95487795E-16
  0.605000019      -1.35584532E-15
  0.606249988      -1.94733065E-15
  0.607500017      -2.41661253E-15
  0.608749986      -2.71779309E-15
  0.610000014      -2.81669668E-15
  0.611249983      -2.69437072E-15
  0.612500012      -2.34945891E-15
  0.613749981      -1.79918480E-15
  0.615000010      -1.07879228E-15
  0.616249979      -2.39415715E-16
  0.617500007       6.55511175E-16
  0.618749976       1.53506976E-15
  0.620000005       2.32653650E-15
  0.621249974       2.96147769E-15
  0.622500002       3.38175575E-15
  0.623749971       3.54491907E-15
  0.625000000       3.42848677E-15
  0.626250029       3.03270469E-15
  0.627499998       2.38146659E-15
  0.628750026       1.52123952E-15
  0.629999995       5.17995217E-16
  0.631250024      -5.47671334E-16
  0.632499993      -1.58689494E-15
  0.633750021      -2.50987763E-15
  0.634999990      -3.23361773E-15
  0.636250019      -3.68937525E-15
  0.637499988      -3.82921827E-15
  0.638750017      -3.63103966E-15
  0.639999986      -3.10154624E-15
  0.641250014      -2.27687665E-15
  0.642499983      -1.22069169E-15
  0.643750012      -1.98012513E-17
  0.644999981       1.22239867E-15
  0.646250010       2.39419919E-15
  0.647499979       3.38491666E-15
  0.648750007       4.09453270E-15
  0.649999976       4.44281613E-15
  0.651250005       4.37712238E-15
  0.652499974       3.87814416E-15
  0.653750002       2.96304788E-15
  0.654999971       1.68562415E-15
  0.656250000       1.33330980E-16
  0.657500029      -1.57862504E-15
  0.658749998      -3.31577019E-15
  0.660000026      -4.93477033E-15
  0.661249995      -6.29493541E-15
  0.662500024      -7.26988219E-15
  0.663749993      -7.75836270E-15
  0.665000021      -7.69330803E-15
  0.666249990      -7.04827169E-15
  0.667500019      -5.84063988E-15
  0.668749988      -4.13124735E-15
  0.670000017      -2.02032541E-15
  0.671249986       3.59974312E-16
  0.672500014       2.85594522E-15
  0.673749983       5.30478312E-15
  0.675000012       7.54814607E-15
  0.676249981       9.44571586E-15
  0.677500010       1.08876311E-14
  0.678749979       1.18047467E-14
  0.680000007       1.21758360E-14
  0.681249976       1.20310925E-14
  0.682500005       1.14516085E-14
  0.683749974       1.05648234E-14
  0.685000002       9.53629418E-15
  0.686249971       8.55844631E-15
  0.687500000       7.83723672E-15
  0.688750029       7.57783711E-15
  0.689999998       7.97054785E-15
  0.691250026       9.17815086E-15
  0.692499995       1.13257800E-14
  0.693750024       1.44942177E-14
  0.694999993       1.87172140E-14
  0.696250021       2.39831077E-14
  0.697499990       3.02406720E-14
  0.698750019       3.74087629E-14
  0.699999988       4.53890093E-14
  0.701250017       5.40805532E-14
  0.702499986       6.33956727E-14
  0.703750014       7.32750449E-14
  0.704999983       8.37014784E-14
  0.706250012       9.47110229E-14
  0.707499981       1.06400613E-13
  0.708750010       1.18931733E-13
  0.709999979       1.32529933E-13
  0.711250007       1.47480295E-13
  0.712499976       1.64119410E-13
  0.713750005       1.82824676E-13
  0.714999974       2.04002017E-13
  0.716250002       2.28073040E-13
  0.717499971       2.55463131E-13
  0.718750000       2.86591497E-13
  0.720000029       3.21864334E-13
  0.721249998       3.61671739E-13
  0.722500026       4.06389007E-13
  0.723749995       4.56382599E-13
  0.725000024       5.12020276E-13
  0.726249993       5.73684926E-13
  0.727500021       6.41791633E-13
  0.728749990       7.16806118E-13
  0.730000019       7.99264355E-13
  0.731249988       8.89790899E-13
  0.732500017       9.89115907E-13
  0.733749986       1.09808853E-12
  0.735000014       1.21768741E-12
  0.736249983       1.34902549E-12
  0.737500012       1.49335145E-12
  0.738749981       1.65204634E-12
  0.740000010       1.82661590E-12
  0.741249979       2.01868080E-12
  0.742500007       2.22996469E-12
  0.743749976       2.46228168E-12
  0.745000005       2.71752586E-12
  0.746249974       2.99766201E-12
  0.747500002       3.30472151E-12
  0.748749971       3.64080250E-12
  0.750000000       4.00807556E-12
  0.751250029       4.40879668E-12
  0.752499998       4.84532466E-12
  0.753750026       5.32014580E-12
  0.754999995       5.83590207E-12
  0.756250024       6.39542195E-12
  0.757499993       7.00175291E-12
  0.758750021       7.65819439E-12
  0.759999990       8.36832860E-12
  0.761250019       9.13604522E-12
  0.762499988       9.96555876E-12
  0.763750017       1.08614281E-11
  0.764999986       1.18285529E-11
  0.766250014       1.28721764E-11
  0.767499983       1.39978714E-11
  0.768750012       1.52115230E-11
  0.769999981       1.65193033E-11
  0.771250010       1.79276524E-11
  0.772499979       1.94432422E-11
  0.773750007       2.10729593E-11
  0.774999976       2.28238765E-11
  0.776250005       2.47032429E-11
  0.777499974       2.67184799E-11
  0.778750002       2.88771750E-11
  0.779999971       3.11871015E-11
  0.781250000       3.36562340E-11
  0.782500029       3.62927778E-11
  0.783749998       3.91052087E-11
  0.785000026       4.21023078E-11
  0.786249995       4.52931893E-11
  0.787500024       4.86873528E-11
  0.788749993       5.22946929E-11
  0.790000021       5.61255244E-11
  0.791249990       6.01905956E-11
  0.792500019       6.45010642E-11
  0.793749988       6.90685079E-11
  0.795000017       7.39048545E-11
  0.796249986       7.90223581E-11
  0.797500014       8.44335574E-11
  0.798749983       9.01511782E-11
  0.800000012       9.61880922E-11
  0.801249981       1.02557254E-10
  0.802500010       1.09271640E-10
  0.803749979       1.16344184E-10
  0.805000007       1.23787730E-10
  0.806249976       1.31615024E-10
  0.807500005       1.39838682E-10
  0.808749974       1.48471152E-10
  0.810000002       1.57524757E-10
  0.811249971       1.67011655E-10
  0.812500000       1.76943890E-10
  0.813750029       1.87333399E-10
  0.814999998       1.98191963E-10
  0.816250026       2.09531295E-10
  0.817499995       2.21362956E-10
  0.818750024       2.33698394E-10
  0.819999993       2.46548837E-10
  0.821250021       2.59925304E-10
  0.822499990       2.73838591E-10
  0.823750019       2.88299107E-10
  0.824999988       3.03316872E-10
  0.826250017       3.18901405E-10
  0.827499986       3.35061645E-10
  0.828750014       3.51805973E-10
  0.829999983       3.69141995E-10
  0.831250012       3.87076621E-10
  0.832499981       4.05615930E-10
  0.833750010       4.24765223E-10
  0.834999979       4.44528914E-10
  0.836250007       4.64910554E-10
  0.837499976       4.85912810E-10
  0.838750005       5.07537568E-10
  0.839999974       5.29785715E-10
  0.841250002       5.52657364E-10
  0.842499971       5.76151793E-10
  0.843750000       6.00267336E-10
  0.845000029       6.25001495E-10
  0.846249998       6.50350940E-10
  0.847500026       6.76311396E-10
  0.848749995       7.02877700E-10
  0.850000024       7.30043748E-10
  0.851249993       7.57802598E-10
  0.852500021       7.86146315E-10
  0.853749990       8.15065848E-10
  0.855000019       8.44551429E-10
  0.856249988       8.74592232E-10
  0.857500017       9.05176434E-10
  0.858749986       9.36291378E-10
  0.860000014       9.67923519E-10
  0.861249983       1.00005837E-09
  0.862500012       1.03268061E-09
  0.863749981       1.06577425E-09
  0.865000010       1.09932263E-09
  0.866249979       1.13330823E-09
  0.867500007       1.16771282E-09
  0.868749976       1.20251786E-09
  0.870000005       1.23770405E-09