 -0.200000003       0.00000000    
 -0.198750004       0.00000000    
 -0.197500005       0.00000000    
 -0.196250007       0.00000000    
 -0.194999993       0.00000000    
 -0.193749994       0.00000000    
 -0.192499995       0.00000000    
 -0.191249996       0.00000000    
 -0.189999998       0.00000000    
 -0.188749999       0.00000000    
 -0.187500000       0.00000000    
 -0.186250001       0.00000000    
 -0.185000002       0.00000000    
 -0.183750004       0.00000000    
 -0.182500005       0.00000000    
 -0.181250006       0.00000000    
 -0.180000007       0.00000000    
 -0.178749993       0.00000000    
 -0.177499995       0.00000000    
 -0.176249996       0.00000000    
 -0.174999997       0.00000000    
 -0.173749998       0.00000000    
 -0.172499999       0.00000000    
 -0.171250001       0.00000000    
 -0.170000002       0.00000000    
 -0.168750003       0.00000000    
 -0.167500004       0.00000000    
 -0.166250005       0.00000000    
 -0.165000007       0.00000000    
 -0.163749993       0.00000000    
 -0.162499994       0.00000000    
 -0.161249995       0.00000000    
 -0.159999996       0.00000000    
 -0.158749998       0.00000000    
 -0.157499999       0.00000000    
 -0.156250000       0.00000000    
 -0.155000001       0.00000000    
 -0.153750002       0.00000000    
 -0.152500004       0.00000000    
 -0.151250005       0.00000000    
 -0.150000006       0.00000000    
 -0.148750007       0.00000000    
 -0.147499993       0.00000000    
 -0.146249995       0.00000000    
 -0.144999996       0.00000000    
 -0.143749997       0.00000000    
 -0.142499998       0.00000000    
 -0.141249999       0.00000000    
 -0.140000001       0.00000000    
 -0.138750002       0.00000000    
 -0.137500003       0.00000000    
 -0.136250004       0.00000000    
 -0.135000005       0.00000000    
 -0.133750007       0.00000000    
 -0.132499993       0.00000000    
 -0.131249994       0.00000000    
 -0.129999995       0.00000000    
 -0.128749996       0.00000000    
 -0.127499998       0.00000000    
 -0.126249999       0.00000000    
 -0.125000000       0.00000000    
 -0.123750001       0.00000000    
 -0.122500002       0.00000000    
 -0.121250004       0.00000000    
 -0.119999997       0.00000000    
 -0.118749999       0.00000000    
 -0.117500000       0.00000000    
 -0.116250001       0.00000000    
 -0.115000002       0.00000000    
 -0.113750003       0.00000000    
 -0.112499997       0.00000000    
 -0.111249998       0.00000000    
 -0.109999999       0.00000000    
 -0.108750001       0.00000000    
 -0.107500002       0.00000000    
 -0.106250003       0.00000000    
 -0.104999997       0.00000000    
 -0.103749998       0.00000000    
 -0.102499999       0.00000000    
 -0.101250000       0.00000000    
 -0.100000001       0.00000000    
  -9.87500027E-02   0.00000000    
  -9.74999964E-02   0.00000000    
  -9.62499976E-02   0.00000000    
  -9.49999988E-02   0.00000000    
  -9.37500000E-02   0.00000000    
  -9.25000012E-02   0.00000000    
  -9.12500024E-02   0.00000000    
  -9.00000036E-02   0.00000000    
  -8.87499973E-02   0.00000000    
  -8.74999985E-02   0.00000000    
  -8.62499997E-02   0.00000000    
  -8.50000009E-02   0.00000000    
  -8.37500021E-02   0.00000000    
  -8.25000033E-02   0.00000000    
  -8.12499970E-02   0.00000000    
  -7.99999982E-02   0.00000000    
  -7.87499994E-02   0.00000000    
  -7.75000006E-02   0.00000000    
  -7.62500018E-02   0.00000000    
  -7.50000030E-02   0.00000000    
  -7.37499967E-02   0.00000000    
  -7.24999979E-02   0.00000000    
  -7.12499991E-02   0.00000000    
  -7.00000003E-02   0.00000000    
  -6.87500015E-02   0.00000000    
  -6.75000027E-02   0.00000000    
  -6.62499964E-02   0.00000000    
  -6.49999976E-02   0.00000000    
  -6.37499988E-02   0.00000000    
  -6.25000000E-02   0.00000000    
  -6.12500012E-02   0.00000000    
  -5.99999987E-02   0.00000000    
  -5.87499999E-02   0.00000000    
  -5.75000010E-02   0.00000000    
  -5.62499985E-02   0.00000000    
  -5.49999997E-02   0.00000000    
  -5.37500009E-02   0.00000000    
  -5.24999984E-02   0.00000000    
  -5.12499996E-02   0.00000000    
  -5.00000007E-02   0.00000000    
  -4.87499982E-02   0.00000000    
  -4.74999994E-02   0.00000000    
  -4.62500006E-02   0.00000000    
  -4.50000018E-02   0.00000000    
  -4.37499993E-02   0.00000000    
  -4.25000004E-02   0.00000000    
  -4.12500016E-02   0.00000000    
  -3.99999991E-02   0.00000000    
  -3.87500003E-02   0.00000000    
  -3.75000015E-02   0.00000000    
  -3.62499990E-02   0.00000000    
  -3.50000001E-02   0.00000000    
  -3.37500013E-02   0.00000000    
  -3.24999988E-02   0.00000000    
  -3.12500000E-02   0.00000000    
  -2.99999993E-02   0.00000000    
  -2.87500005E-02   0.00000000    
  -2.74999999E-02   0.00000000    
  -2.62499992E-02   0.00000000    
  -2.50000004E-02   0.00000000    
  -2.37499997E-02   0.00000000    
  -2.25000009E-02   0.00000000    
  -2.12500002E-02   0.00000000    
  -1.99999996E-02   0.00000000    
  -1.87500007E-02   0.00000000    
  -1.75000001E-02   0.00000000    
  -1.62499994E-02   0.00000000    
  -1.49999997E-02   0.00000000    
  -1.37499999E-02   0.00000000    
  -1.25000002E-02   0.00000000    
  -1.12500004E-02   0.00000000    
  -9.99999978E-03   0.00000000    
  -8.75000004E-03   0.00000000    
  -7.49999983E-03   0.00000000    
  -6.25000009E-03   0.00000000    
  -4.99999989E-03   0.00000000    
  -3.74999992E-03   0.00000000    
  -2.49999994E-03   0.00000000    
  -1.24999997E-03   0.00000000    
   0.00000000       0.00000000    
   1.24999997E-03   0.00000000    
   2.49999994E-03   0.00000000    
   3.74999992E-03   0.00000000    
   4.99999989E-03   0.00000000    
   6.25000009E-03   0.00000000    
   7.49999983E-03   0.00000000    
   8.75000004E-03   0.00000000    
   9.99999978E-03   0.00000000    
   1.12500004E-02   0.00000000    
   1.25000002E-02   0.00000000    
   1.37499999E-02   0.00000000    
   1.49999997E-02   0.00000000    
   1.62499994E-02   0.00000000    
   1.75000001E-02   0.00000000    
   1.87500007E-02   0.00000000    
   1.99999996E-02   0.00000000    
   2.12500002E-02   0.00000000    
   2.25000009E-02   0.00000000    
   2.37499997E-02   0.00000000    
   2.50000004E-02   0.00000000    
   2.62499992E-02   0.00000000    
   2.74999999E-02   0.00000000    
   2.87500005E-02   0.00000000    
   2.99999993E-02   0.00000000    
   3.12500000E-02   0.00000000    
   3.24999988E-02   0.00000000    
   3.37500013E-02   0.00000000    
   3.50000001E-02   0.00000000    
   3.62499990E-02   0.00000000    
   3.75000015E-02   0.00000000    
   3.87500003E-02   0.00000000    
   3.99999991E-02   0.00000000    
   4.12500016E-02   0.00000000    
   4.25000004E-02   0.00000000    
   4.37499993E-02   0.00000000    
   4.50000018E-02   0.00000000    
   4.62500006E-02   0.00000000    
   4.74999994E-02   0.00000000    
   4.87499982E-02   0.00000000    
   5.00000007E-02   0.00000000    
   5.12499996E-02   0.00000000    
   5.24999984E-02   0.00000000    
   5.37500009E-02   0.00000000    
   5.49999997E-02  -1.40129846E-45
   5.62499985E-02  -2.80259693E-45
   5.75000010E-02  -4.20389539E-45
   5.87499999E-02  -5.60519386E-45
   5.99999987E-02  -5.60519386E-45
   6.12500012E-02  -2.80259693E-45
   6.25000000E-02   1.40129846E-45
   6.37499988E-02   7.00649232E-45
   6.49999976E-02   1.54142831E-44
   6.62499964E-02   2.24207754E-44
   6.75000027E-02   2.66246708E-44
   6.87500015E-02   2.52233724E-44
   7.00000003E-02   1.54142831E-44
   7.12499991E-02  -4.20389539E-45
   7.24999979E-02  -3.64337601E-44
   7.37499967E-02  -7.70714155E-44
   7.50000030E-02  -1.20511668E-43
   7.62500018E-02  -1.58346726E-43
   7.75000006E-02  -1.75162308E-43
   7.87499994E-02  -1.58346726E-43
   7.99999982E-02  -9.24856986E-44
   8.12499970E-02   2.94272678E-44
   8.25000033E-02   2.04589576E-43
   8.37500021E-02   4.16185644E-43
   8.50000009E-02   6.30584309E-43
   8.62499997E-02   7.98740125E-43
   8.74999985E-02   8.57594660E-43
   8.87499973E-02   7.37082992E-43
   9.00000036E-02   3.83955779E-43
   9.12500024E-02  -2.27010351E-43
   9.25000012E-02  -1.07199333E-42
   9.37500000E-02  -2.05710615E-42
   9.49999988E-02  -3.01139040E-42
   9.62499976E-02  -3.69102016E-42
   9.74999964E-02  -3.81013052E-42
   9.87500027E-02  -3.08285662E-42
  0.100000001      -1.30040497E-42
  0.101250000       1.59467765E-42
  0.102499999       5.41741986E-42
  0.103749998       9.68297239E-42
  0.104999997       1.35897925E-41
  0.106250003       1.60658869E-41
  0.107500002       1.59117441E-41
  0.108750001       1.20245421E-41
  0.109999999       3.69802665E-42
  0.111249998      -9.04538159E-42
  0.112499997      -2.51477022E-41
  0.113750003      -4.23360292E-41
  0.115000002      -5.71351423E-41
  0.116250001      -6.51785955E-41
  0.117500000      -6.18463077E-41
  0.118749999      -4.32244524E-41
  0.119999997      -7.28535072E-42
  0.121250004       4.48933989E-41
  0.122500002       1.08125591E-40
  0.123750001       1.72672201E-40
  0.125000000       2.24644959E-40
  0.126249999       2.47532367E-40
  0.127499998       2.24892989E-40
  0.128749996       1.44066094E-40
  0.129999995       4.59625896E-43
  0.131249994      -1.98358002E-40
  0.132499993      -4.29775436E-40
  0.133750007      -6.55534428E-40
  0.135000005      -8.24395097E-40
  0.136250004      -8.78689807E-40
  0.137500003      -7.64666151E-40
  0.138750002      -4.45720812E-40
  0.140000001       8.34501261E-41
  0.141249999       7.84581405E-40
  0.142499998       1.56885733E-39
  0.143749997       2.29862134E-39
  0.144999996       2.80039549E-39
  0.146249995       2.89019910E-39
  0.147499993       2.40972609E-39
  0.148750007       1.26904812E-39
  0.150000006      -5.11466933E-40
  0.151250005      -2.76950246E-39
  0.152500004      -5.18981396E-39
  0.153750002      -7.32300361E-39
  0.155000001      -8.63944504E-39
  0.156250000      -8.61757918E-39
  0.157499999      -6.85779213E-39
  0.158749998      -3.20454538E-39
  0.159999996       2.14788226E-39
  0.161249995       8.59463712E-39
  0.162499994       1.51317323E-38
  0.163749993       2.04586997E-38
  0.165000007       2.31763387E-38
  0.166250005       2.20625881E-38
  0.167500004       1.63862630E-38
  0.168750003       6.19727609E-39
  0.170000002      -7.48098319E-39
  0.171250001      -2.26306325E-38
  0.172499999      -3.64442502E-38
  0.173749998      -4.57721644E-38
  0.174999997      -4.77740257E-38
  0.176249996      -4.06741088E-38
  0.177499995      -2.44622095E-38
  0.178749993      -1.34551277E-39
  0.180000007       2.42425111E-38
  0.181250006       4.62193495E-38
  0.182500005       5.80550835E-38
  0.183750004       5.44853990E-38
  0.185000002       3.34476799E-38
  0.186250001      -2.21067585E-39
  0.187500000      -4.38062772E-38
  0.188749999      -7.72270550E-38
  0.189999998      -8.50746178E-38
  0.191249996      -5.06326914E-38
  0.192499995       3.67000152E-38
  0.193749994       1.75406571E-37
  0.194999993       3.46679020E-37
  0.196250007       5.11819444E-37
  0.197500005       6.13988406E-37
  0.198750004       5.85664958E-37
  0.200000003       3.62267961E-37
  0.201250002      -9.89949206E-38
  0.202500001      -7.97678546E-37
  0.203749999      -1.67038257E-36
  0.204999998      -2.57840532E-36
  0.206249997      -3.30885194E-36
  0.207499996      -3.59443343E-36
  0.208749995      -3.15477350E-36
  0.209999993      -1.75802950E-36
  0.211250007       7.03604828E-37
  0.212500006       4.13666141E-36
  0.213750005       8.18459681E-36
  0.215000004       1.22015639E-35
  0.216250002       1.52813433E-35
  0.217500001       1.63558732E-35
  0.218750000       1.43675543E-35
  0.219999999       8.50470019E-36
  0.221249998      -1.52826463E-36
  0.222499996      -1.52519488E-35
  0.223749995      -3.12244159E-35
  0.224999994      -4.69904613E-35
  0.226249993      -5.92267089E-35
  0.227500007      -6.41202379E-35
  0.228750005      -5.79818328E-35
  0.230000004      -3.80462264E-35
  0.231250003      -3.35685213E-36
  0.232500002       4.44184934E-35
  0.233750001       1.00430656E-34
  0.234999999       1.56548331E-34
  0.236249998       2.01881374E-34
  0.237499997       2.24022729E-34
  0.238749996       2.10988609E-34
  0.239999995       1.53690445E-34
  0.241249993       4.86157544E-35
  0.242500007      -9.97441280E-35
  0.243750006      -2.77269684E-34
  0.245000005      -4.59948118E-34
  0.246250004      -6.15421343E-34
  0.247500002      -7.06581068E-34
  0.248750001      -6.97117190E-34
  0.250000000      -5.58524983E-34
  0.251249999      -2.77659641E-34
  0.252499998       1.36429493E-34
  0.253749996       6.47863793E-34
  0.254999995       1.19296422E-33
  0.256249994       1.68411643E-33
  0.257499993       2.01905408E-33
  0.258749992       2.09528929E-33
  0.259999990       1.82840340E-33
  0.261249989       1.17187273E-33
  0.262499988       1.35237399E-34
  0.263749987      -1.20307273E-33
  0.264999986      -2.69188096E-33
  0.266250014      -4.11527238E-33
  0.267500013      -5.21393495E-33
  0.268750012      -5.71927409E-33
  0.270000011      -5.39734917E-33
  0.271250010      -4.09726013E-33
  0.272500008      -1.79661510E-33
  0.273750007       1.36444754E-33
  0.275000006       5.06911000E-33
  0.276250005       8.83644524E-33
  0.277500004       1.20644409E-32
  0.278750002       1.41027892E-32
  0.280000001       1.43495843E-32
  0.281250000       1.23607477E-32
  0.282499999       7.95664943E-33
  0.283749998       1.30765454E-33
  0.284999996      -7.01974590E-33
  0.286249995      -1.60716791E-32
  0.287499994      -2.45799087E-32
  0.288749993      -3.10998160E-32
  0.289999992      -3.42036295E-32
  0.291249990      -3.27084330E-32
  0.292499989      -2.59091768E-32
  0.293749988      -1.37808081E-32
  0.294999987       2.88794589E-33
  0.296249986       2.24622659E-32
  0.297500014       4.25535156E-32
  0.298750013       6.02437093E-32
  0.300000012       7.24307528E-32
  0.301250011       7.62626058E-32
  0.302500010       6.96097486E-32
  0.303750008       5.15113379E-32
  0.305000007       2.25239602E-32
  0.306250006      -1.50949843E-32
  0.307500005      -5.74236690E-32
  0.308750004      -9.91626346E-32
  0.310000002      -1.34171090E-31
  0.311250001      -1.56215382E-31
  0.312500000      -1.59856112E-31
  0.313749999      -1.41368665E-31
  0.314999998      -9.95706487E-32
  0.316249996      -3.64226631E-32
  0.317499995       4.27207238E-32
  0.318749994       1.29303756E-31
  0.319999993       2.12253137E-31
  0.321249992       2.79138601E-31
  0.322499990       3.17727025E-31
  0.323749989       3.17776866E-31
  0.324999988       2.72858382E-31
  0.326249987       1.81942957E-31
  0.327499986       5.04901272E-32
  0.328750014      -1.09217743E-31
  0.330000013      -2.78682345E-31
  0.331250012      -4.34826269E-31
  0.332500011      -5.52613859E-31
  0.333750010      -6.08454402E-31
  0.335000008      -5.84025936E-31
  0.336250007      -4.70018642E-31
  0.337500006      -2.69204123E-31
  0.338750005       1.78640428E-33
  0.340000004       3.12520008E-31
  0.341250002       6.21027489E-31
  0.342500001       8.78372731E-31
  0.343750000       1.03526794E-30
  0.344999999       1.05008020E-30
  0.346249998       8.97197944E-31
  0.347499996       5.74429483E-31
  0.348749995       1.07969474E-31
  0.349999994      -4.46448335E-31
  0.351249993      -1.00725421E-30
  0.352499992      -1.47603798E-30
  0.353749990      -1.75144803E-30
  0.354999989      -1.74665107E-30
  0.356249988      -1.40806544E-30
  0.357499987      -7.32319298E-31
  0.358749986       2.22013902E-31
  0.360000014       1.33122572E-30
  0.361250013       2.41439656E-30
  0.362500012       3.25360662E-30
  0.363750011       3.62566506E-30
  0.365000010       3.34232917E-30
  0.366250008       2.29372313E-30
  0.367500007       4.87843509E-31
  0.368750006      -1.92194643E-30
  0.370000005      -4.62928295E-30
  0.371250004      -7.19315575E-30
  0.372500002      -9.08515096E-30
  0.373750001      -9.76399763E-30
  0.375000000      -8.77057739E-30
  0.376249999      -5.83131978E-30
  0.377499998      -9.53624024E-31
  0.378749996       5.50543437E-30
  0.379999995       1.28154448E-29
  0.381249994       1.99086824E-29
  0.382499993       2.54833543E-29
  0.383749992       2.81716456E-29
  0.384999990       2.67584704E-29
  0.386249989       2.04249475E-29
  0.387499988       8.98081220E-30
  0.388749987      -6.95596995E-30
  0.389999986      -2.58740954E-29
  0.391250014      -4.54130700E-29
  0.392500013      -6.25570393E-29
  0.393750012      -7.39782132E-29
  0.395000011      -7.65050814E-29
  0.396250010      -6.76651291E-29
  0.397500008      -4.62297726E-29
  0.398750007      -1.26743433E-29
  0.400000006       3.05370366E-29
  0.401250005       7.89213350E-29
  0.402500004       1.26255445E-28
  0.403750002       1.65179548E-28
  0.405000001       1.88092481E-28
  0.406250000       1.88255403E-28
  0.407499999       1.60972667E-28
  0.408749998       1.04684175E-28
  0.409999996       2.17883810E-29
  0.411249995      -8.09749000E-29
  0.412499994      -1.92714797E-28
  0.413749993      -2.99221865E-28
  0.414999992      -3.84427534E-28
  0.416249990      -4.32380613E-28
  0.417499989      -4.29537652E-28
  0.418749988      -3.67088170E-28
  0.419999987      -2.42986853E-28
  0.421249986      -6.33603989E-29
  0.422500014       1.57004529E-28
  0.423750013       3.95297578E-28
  0.425000012       6.22522332E-28
  0.426250011       8.06456394E-28
  0.427500010       9.15490703E-28
  0.428750008       9.22950696E-28
  0.430000007       8.11387256E-28
  0.431250006       5.76259184E-28
  0.432500005       2.28440208E-28
  0.433750004      -2.04937146E-28
  0.435000002      -6.81630374E-28
  0.436250001      -1.14754138E-27
  0.437500000      -1.54193331E-27
  0.438749999      -1.80420077E-27
  0.439999998      -1.88153822E-27
  0.441249996      -1.73666111E-27
  0.442499995      -1.35462478E-27
  0.443749994      -7.47784286E-28
  0.444999993       4.19545151E-29
  0.446249992       9.44214889E-28
  0.447499990       1.86485794E-27
  0.448749989       2.69421980E-27
  0.449999988       3.31834609E-27
  0.451249987       3.63226112E-27
  0.452499986       3.55394587E-27
  0.453750014       3.03744440E-27
  0.455000013       2.08339744E-27
  0.456250012       7.45388911E-28
  0.457500011      -8.69241517E-28
  0.458750010      -2.60498954E-27
  0.460000008      -4.27040260E-27
  0.461250007      -5.65637151E-27
  0.462500006      -6.55912729E-27
  0.463750005      -6.80578499E-27
  0.465000004      -6.27964750E-27
  0.466250002      -4.94208030E-27
  0.467500001      -2.84773279E-27
  0.468750000      -1.50233465E-28
  0.469999999       2.90372150E-27
  0.471249998       5.99277985E-27
  0.472499996       8.75124155E-27
  0.473749995       1.08090060E-26
  0.474999994       1.18372893E-26
  0.476249993       1.15949125E-26
  0.477499992       9.96912954E-27
  0.478749990       7.00486836E-27
  0.479999989       2.91696438E-27
  0.481249988      -1.91840052E-27
  0.482499987      -6.99449145E-27
  0.483749986      -1.17255361E-26
  0.485000014      -1.55143502E-26
  0.486250013      -1.78285708E-26
  0.487500012      -1.82758318E-26
  0.488750011      -1.66672165E-26
  0.490000010      -1.30587233E-26
  0.491250008      -7.76256079E-27
  0.492500007      -1.32363724E-27
  0.493750006       5.53869141E-27
  0.495000005       1.20182705E-26
  0.496250004       1.73287349E-26
  0.497500002       2.08145618E-26
  0.498750001       2.20498333E-26
  0.500000000       2.09082190E-26
  0.501250029       1.75905443E-26
  0.502499998       1.26019012E-26
  0.503750026       6.67771218E-27
  0.504999995       6.66770958E-28
  0.506250024      -4.61248936E-27
  0.507499993      -8.51973784E-27
  0.508750021      -1.07183186E-26
  0.509999990      -1.12531902E-26
  0.511250019      -1.05610764E-26
  0.512499988      -9.40228445E-27
  0.513750017      -8.71652782E-27
  0.514999986      -9.41949302E-27
  0.516250014      -1.21704675E-26
  0.517499983      -1.71516002E-26
  0.518750012      -2.39040123E-26
  0.519999981      -3.12632726E-26
  0.521250010      -3.74260080E-26
  0.522499979      -4.01612107E-26
  0.523750007      -3.71561283E-26
  0.524999976      -2.64605087E-26
  0.526250005      -6.96878645E-27
  0.527499974       2.11383029E-26
  0.528750002       5.60790001E-26
  0.529999971       9.43634737E-26
  0.531250000       1.30955175E-25
  0.532500029       1.59727780E-25
  0.533749998       1.74201109E-25
  0.535000026       1.68490718E-25
  0.536249995       1.38360040E-25
  0.537500024       8.22279395E-26
  0.538749993       1.96603358E-27
  0.540000021      -9.66748670E-26
  0.541249990      -2.04139539E-25
  0.542500019      -3.07719478E-25
  0.543749988      -3.92779934E-25
  0.545000017      -4.44476922E-25
  0.546249986      -4.49791528E-25
  0.547500014      -3.99637551E-25
  0.548749983      -2.90751401E-25
  0.550000012      -1.27065006E-25
  0.551249981       7.97060621E-26
  0.552500010       3.10450022E-25
  0.553749979       5.40100176E-25
  0.555000007       7.40070795E-25
  0.556249976       8.81482149E-25
  0.557500005       9.38836478E-25
  0.558749974       8.93704661E-25
  0.560000002       7.37935940E-25
  0.561249971       4.75910909E-25
  0.562500000       1.25441013E-25
  0.563750029      -2.82942343E-25
  0.564999998      -7.08377519E-25
  0.566250026      -1.10359205E-24
  0.567499995      -1.41999026E-24
  0.568750024      -1.61336472E-24
  0.569999993      -1.64956209E-24
  0.571250021      -1.50938762E-24
  0.572499990      -1.19208371E-24
  0.573750019      -7.16849195E-25
  0.574999988      -1.22085617E-25
  0.576250017       5.37677535E-25
  0.577499986       1.19693481E-24
  0.578750014       1.78592035E-24
  0.579999983       2.23815340E-24
  0.581250012       2.49794857E-24
  0.582499981       2.52699857E-24
  0.583750010       2.30922129E-24
  0.584999979       1.85325929E-24
  0.586250007       1.19228891E-24
  0.587499976       3.81122911E-25
  0.588750005      -5.09083299E-25
  0.589999974      -1.39791615E-24
  0.591250002      -2.20375926E-24
  0.592499971      -2.85188659E-24
  0.593750000      -3.28167004E-24
  0.595000029      -3.45210463E-24
  0.596249998      -3.34508736E-24
  0.597500026      -2.96618130E-24
  0.598749995      -2.34293010E-24
  0.600000024      -1.52109412E-24
  0.601249993      -5.59436242E-25
  0.602500021       4.76161915E-25
  0.603749990       1.51843487E-24
  0.605000019       2.50358360E-24
  0.606249988       3.37470120E-24
  0.607500017       4.08351520E-24
  0.608749986       4.59050230E-24
  0.610000014       4.86375070E-24
  0.611249983       4.87720118E-24
  0.612500012       4.60905592E-24
  0.613749981       4.04116836E-24
  0.615000010       3.16011309E-24
  0.616249979       1.96034933E-24
  0.617500007       4.49519519E-25
  0.618749976      -1.34455681E-24
  0.620000005      -3.36611484E-24
  0.621249974      -5.52426039E-24
  0.622500002      -7.68803328E-24
  0.623749971      -9.68549378E-24
  0.625000000      -1.13084662E-23
  0.626250029      -1.23241538E-23
  0.627499998      -1.24941194E-23
  0.628750026      -1.16001886E-23
  0.629999995      -9.47568675E-24
  0.631250024      -6.03927060E-24
  0.632499993      -1.32751574E-24
  0.633750021       4.47836296E-24
  0.634999990       1.10366674E-23
  0.636250019       1.78450150E-23
  0.637499988       2.42596485E-23
  0.638750017       2.95364417E-23
  0.639999986       3.28935244E-23
  0.641250014       3.35925751E-23
  0.642499983       3.10327940E-23
  0.643750012       2.48486831E-23
  0.644999981       1.50002674E-23
  0.646250010       1.84312065E-24
  0.647499979      -1.38345834E-23
  0.648750007      -3.08190885E-23
  0.649999976      -4.75298509E-23
  0.651250005      -6.21328306E-23
  0.652499974      -7.27045197E-23
  0.653750002      -7.74360380E-23
  0.654999971      -7.48595236E-23
  0.656250000      -6.40732265E-23
  0.657500029      -4.49377581E-23
  0.658749998      -1.82149040E-23
  0.660000026       1.43770957E-23
  0.661249995       5.02117602E-23
  0.662500024       8.59162674E-23
  0.663749993       1.17644720E-22
  0.665000021       1.41446320E-22
  0.666249990       1.53697986E-22
  0.667500019       1.51558444E-22
  0.668749988       1.33392555E-22
  0.670000017       9.91112724E-23
  0.671249986       5.03757108E-23
  0.672500014      -9.37562842E-24
  0.673749983      -7.51013946E-23
  0.675000012      -1.40536530E-22
  0.676249981      -1.98754540E-22
  0.677500010      -2.42866569E-22
  0.678749979      -2.66789476E-22
  0.680000007      -2.65999682E-22
  0.681249976      -2.38182805E-22
  0.682500005      -1.83693317E-22
  0.683749974      -1.05753159E-22
  0.685000002      -1.03436507E-23
  0.686249971       9.42221334E-23
  0.687500000       1.98021770E-22
  0.688750029       2.90478780E-22
  0.689999998       3.61456521E-22
  0.691250026       4.02373133E-22
  0.692499995       4.07210731E-22
  0.693750024       3.73296150E-22
  0.694999993       3.01752271E-22
  0.696250021       1.97552871E-22
  0.697499990       6.91582617E-23
  0.698750019      -7.22410670E-23
  0.699999988      -2.13798244E-22
  0.701250017      -3.42286015E-22
  0.702499986      -4.45432872E-22
  0.703750014      -5.13167575E-22
  0.704999983      -5.38629430E-22
  0.706250012      -5.18830611E-22
  0.707499981      -4.54898597E-22
  0.708750010      -3.51880583E-22
  0.709999979      -2.18146773E-22
  0.711250007      -6.44783917E-23
  0.712499976       9.70348833E-23
  0.713750005       2.54144629E-22
  0.714999974       3.95498280E-22
  0.716250002       5.11478428E-22
  0.717499971       5.94747303E-22
  0.718750000       6.40467308E-22
  0.720000029       6.46224049E-22
  0.721249998       6.11727276E-22
  0.722500026       5.38398401E-22
  0.723749995       4.28969636E-22
  0.725000024       2.87206762E-22
  0.726249993       1.17835460E-22
  0.727500021      -7.33027728E-23
  0.728749990      -2.78901988E-22
  0.730000019      -4.89750851E-22
  0.731249988      -6.94350270E-22
  0.732500017      -8.78767319E-22
  0.733749986      -1.02689889E-21
  0.735000014      -1.12127735E-21
  0.736249983      -1.14447738E-21
  0.737500012      -1.08108053E-21
  0.738749981      -9.20042542E-22
  0.740000010      -6.57198531E-22
  0.741249979      -2.97552704E-22
  0.742500007       1.43044615E-22
  0.743749976       6.37224169E-22
  0.745000005       1.14674920E-21
  0.746249974       1.62468309E-21
  0.747500002       2.01908265E-21
  0.748749971       2.27801764E-21
  0.750000000       2.35549676E-21
  0.751250029       2.21769404E-21
  0.752499998       1.84872666E-21
  0.753750026       1.25518650E-21
  0.754999995       4.68671680E-22
  0.756250024      -4.54286896E-22
  0.757499993      -1.43525368E-21
  0.758750021      -2.37989515E-21
  0.759999990      -3.18661597E-21
  0.761250019      -3.75710564E-21
  0.762499988      -4.00775146E-21
  0.763750017      -3.88064757E-21
  0.764999986      -3.35283929E-21
  0.766250014      -2.44250885E-21
  0.767499983      -1.21104270E-21
  0.768750012       2.39683913E-22
  0.769999981       1.77495875E-21
  0.771250010       3.23939518E-21
  0.772499979       4.47259425E-21
  0.773750007       5.32678021E-21
  0.774999976       5.68451159E-21
  0.776250005       5.47438631E-21
  0.777499974       4.68272074E-21
  0.778750002       3.35948662E-21
  0.779999971       1.61733449E-21
  0.781250000      -3.76748886E-22
  0.782500029      -2.41675094E-21
  0.783749998      -4.27865715E-21
  0.785000026      -5.74515023E-21
  0.786249995      -6.63134178E-21
  0.787500024      -6.80856159E-21
  0.788749993      -6.22323195E-21
  0.790000021      -4.90819612E-21
  0.791249990      -2.98457610E-21
  0.792500019      -6.53212726E-22
  0.793749988       1.82408491E-21
  0.795000017       4.15201249E-21
  0.796249986       6.03533149E-21
  0.797500014       7.21494799E-21
  0.798749983       7.50233994E-21
  0.800000012       6.80803571E-21
  0.801249981       5.16021479E-21
  0.802500010       2.71035502E-21
  0.803749979      -2.75807861E-22
  0.805000007      -3.44214571E-21
  0.806249976      -6.37916034E-21
  0.807500005      -8.67078022E-21
  0.808749974      -9.94606169E-21
  0.810000002      -9.92994055E-21
  0.811249971      -8.48675192E-21
  0.812500000      -5.65059840E-21
  0.813750029      -1.63769150E-21
  0.814999998       3.16245850E-21
  0.816250026       8.21785602E-21
  0.817499995       1.29051307E-20
  0.818750024       1.65766510E-20
  0.819999993       1.86370513E-20
  0.821250021       1.86208760E-20
  0.822499990       1.62622125E-20
  0.823750019       1.15472863E-20
  0.824999988       4.74228219E-21
  0.826250017      -3.60911988E-21
  0.827499986      -1.27209061E-20
  0.828750014      -2.16313514E-20
  0.829999983      -2.92961136E-20
  0.831250012      -3.46993058E-20
  0.832499981      -3.69712834E-20
  0.833750010      -3.55002590E-20
  0.834999979      -3.00245204E-20
  0.836250007      -2.06933334E-20
  0.837499976      -8.08726245E-21
  0.838750005       6.80736525E-21
  0.839999974       2.26703209E-20
  0.841250002       3.79609307E-20
  0.842499971       5.10634490E-20
  0.843750000       6.04505466E-20
  0.845000029       6.48482523E-20
  0.846249998       6.33847759E-20
  0.847500026       5.57063362E-20
  0.848749995       4.20461495E-20
  0.850000024       2.32369897E-20
  0.851249993       6.63702279E-22
  0.852500021      -2.38418252E-20
  0.853749990      -4.81544389E-20
  0.855000019      -7.00440775E-20
  0.856249988      -8.73806134E-20
  0.857500017      -9.83352248E-20
  0.858749986      -1.01558308E-19
  0.860000014      -9.63165486E-20
  0.861249983      -8.25759219E-20
  0.862500012      -6.10228909E-20
  0.863749981      -3.30225332E-20
  0.865000010      -5.18513552E-22
  0.866249979       3.41148510E-20
  0.867500007       6.82540134E-20
  0.868749976       9.92245990E-20
  0.870000005       1.24499885E-19