 -0.200000003       0.00000000    
 -0.198750004       0.00000000    
 -0.197500005       0.00000000    
 -0.196250007       0.00000000    
 -0.194999993       0.00000000    
 -0.193749994       0.00000000    
 -0.192499995       0.00000000    
 -0.191249996       0.00000000    
 -0.189999998       0.00000000    
 -0.188749999       0.00000000    
 -0.187500000       0.00000000    
 -0.186250001       0.00000000    
 -0.185000002       0.00000000    
 -0.183750004       0.00000000    
 -0.182500005       0.00000000    
 -0.181250006       0.00000000    
 -0.180000007       0.00000000    
 -0.178749993       0.00000000    
 -0.177499995       0.00000000    
 -0.176249996       0.00000000    
 -0.174999997       0.00000000    
 -0.173749998       0.00000000    
 -0.172499999       0.00000000    
 -0.171250001       0.00000000    
 -0.170000002       0.00000000    
 -0.168750003       0.00000000    
 -0.167500004       0.00000000    
 -0.166250005       0.00000000    
 -0.165000007       0.00000000    
 -0.163749993       0.00000000    
 -0.162499994       0.00000000    
 -0.161249995       0.00000000    
 -0.159999996       0.00000000    
 -0.158749998       0.00000000    
 -0.157499999       0.00000000    
 -0.156250000       0.00000000    
 -0.155000001       7.00649232E-45
 -0.153750002       7.00649232E-45
 -0.152500004      -4.20389539E-44
 -0.151250005      -1.80767502E-43
 -0.150000006      -5.54914192E-43
 -0.148750007      -1.39709457E-42
 -0.147499993      -2.69749954E-42
 -0.146249995      -3.67140198E-42
 -0.144999996      -2.66947357E-42
 -0.143749997       3.45560201E-42
 -0.142499998       2.07798549E-41
 -0.141249999       5.74756578E-41
 -0.140000001       1.21170278E-40
 -0.138750002       2.12033273E-40
 -0.137500003       3.06273398E-40
 -0.136250004       3.30905422E-40
 -0.135000005       1.31186760E-40
 -0.133750007      -5.57089007E-40
 -0.132499993      -2.09741870E-39
 -0.131249994      -4.85663703E-39
 -0.129999995      -8.95037215E-39
 -0.128749996      -1.37603179E-38
 -0.127499998      -1.72072221E-38
 -0.126249999      -1.48956037E-38
 -0.125000000       5.03504755E-40
 -0.123750001       3.89159725E-38
 -0.122500002       1.10476488E-37
 -0.121250004       2.19767499E-37
 -0.119999997       3.55653451E-37
 -0.118749999       4.76891822E-37
 -0.117500000       4.96317944E-37
 -0.116250001       2.70567999E-37
 -0.115000002      -3.92432850E-37
 -0.113750003      -1.69121111E-36
 -0.112499997      -3.73547661E-36
 -0.111249998      -6.38640685E-36
 -0.109999999      -9.04099725E-36
 -0.108750001      -1.04059403E-35
 -0.107500002      -8.35980243E-36
 -0.106250003      -6.26280417E-38
 -0.104999997       1.74821480E-35
 -0.103749998       4.62133378E-35
 -0.102499999       8.50466145E-35
 -0.101250000       1.27303306E-34
 -0.100000001       1.58087356E-34
  -9.87500027E-02   1.52707553E-34
  -9.74999964E-02   7.78041172E-35
  -9.62499976E-02  -1.02808277E-34
  -9.49999988E-02  -4.15756694E-34
  -9.37500000E-02  -8.58476841E-34
  -9.25000012E-02  -1.37398842E-33
  -9.12500024E-02  -1.82542444E-33
  -9.00000036E-02  -1.98026221E-33
  -8.87499973E-02  -1.51860692E-33
  -8.74999985E-02  -8.21861799E-35
  -8.62499997E-02   2.62164132E-33
  -8.50000009E-02   6.65627570E-33
  -8.37500021E-02   1.16470750E-32
  -8.25000033E-02   1.65698169E-32
  -8.12499970E-02   1.96122034E-32
  -7.99999982E-02   1.82142291E-32
  -7.87499994E-02   9.40657542E-33
  -7.75000006E-02  -9.45401323E-33
  -7.62500018E-02  -3.95234820E-32
  -7.50000030E-02  -7.89841220E-32
  -7.37499967E-02  -1.21518080E-31
  -7.24999979E-02  -1.55236666E-31
  -7.12499991E-02  -1.62743725E-31
  -7.00000003E-02  -1.23083169E-31
  -6.87500015E-02  -1.61852318E-32
  -6.75000027E-02   1.70004272E-31
  -6.62499964E-02   4.30295961E-31
  -6.49999976E-02   7.32576684E-31
  -6.37499988E-02   1.01051193E-30
  -6.25000000E-02   1.16246583E-30
  -6.12500012E-02   1.06084735E-30
  -5.99999987E-02   5.75343406E-31
  -5.87499999E-02  -3.88796261E-31
  -5.75000010E-02  -1.84027214E-30
  -5.62499985E-02  -3.64735434E-30
  -5.49999997E-02  -5.49393334E-30
  -5.37500009E-02  -6.86534291E-30
  -5.24999984E-02  -7.08519760E-30
  -5.12499996E-02  -5.42099288E-30
  -5.00000007E-02  -1.26542550E-30
  -4.87499982E-02   5.61832208E-30
  -4.74999994E-02   1.48243297E-29
  -4.62500006E-02   2.50693576E-29
  -4.50000018E-02   3.40836878E-29
  -4.37499993E-02   3.87244898E-29
  -4.25000004E-02   3.53947706E-29
  -4.12500016E-02   2.08057911E-29
  -3.99999991E-02  -6.95781990E-30
  -3.87500003E-02  -4.72169501E-29
  -3.75000015E-02  -9.55836805E-29
  -3.62499990E-02  -1.43314502E-28
  -3.50000001E-02  -1.77535472E-28
  -3.37500013E-02  -1.82694822E-28
  -3.24999988E-02  -1.43427987E-28
  -3.12500000E-02  -4.87194523E-29
  -2.99999993E-02   1.03161041E-28
  -2.87500005E-02   2.99918450E-28
  -2.74999999E-02   5.12043913E-28
  -2.62499992E-02   6.92720601E-28
  -2.50000004E-02   7.82221117E-28
  -2.37499997E-02   7.17607131E-28
  -2.25000009E-02   4.47486837E-28
  -2.12500002E-02  -4.98548422E-29
  -1.99999996E-02  -7.48241117E-28
  -1.87500007E-02  -1.55999391E-27
  -1.75000001E-02  -2.33237107E-27
  -1.62499994E-02  -2.85911869E-27
  -1.49999997E-02  -2.91036210E-27
  -1.37499999E-02  -2.28062326E-27
  -1.25000002E-02  -8.50004270E-28
  -1.12500004E-02   1.35177585E-27
  -9.99999978E-03   4.09359992E-27
  -8.75000004E-03   6.92131613E-27
  -7.49999983E-03   9.18342023E-27
  -6.25000009E-03   1.01158353E-26
  -4.99999989E-03   8.98716180E-27
  -3.74999992E-03   5.29104532E-27
  -2.49999994E-03  -1.04453639E-27
  -1.24999997E-03  -9.47676324E-27
   0.00000000      -1.87517029E-26
   1.24999997E-03  -2.69471989E-26
   2.49999994E-03  -3.16954266E-26
   3.74999992E-03  -3.05958716E-26
   4.99999989E-03  -2.17865155E-26
   6.25000009E-03  -4.59052451E-27
   7.49999983E-03   1.98921569E-26
   8.75000004E-03   4.84117066E-26
   9.99999978E-03   7.55816077E-26
   1.12500004E-02   9.44109779E-26
   1.25000002E-02   9.74098080E-26
   1.37499999E-02   7.82016119E-26
   1.49999997E-02   3.34340976E-26
   1.62499994E-02  -3.53641752E-26
   1.75000001E-02  -1.20439610E-25
   1.87500007E-02  -2.07473697E-25
   1.99999996E-02  -2.76667571E-25
   2.12500002E-02  -3.05476451E-25
   2.25000009E-02  -2.72909857E-25
   2.37499997E-02  -1.64921664E-25
   2.50000004E-02   1.99928892E-26
   2.62499992E-02   2.66209124E-25
   2.74999999E-02   5.38770255E-25
   2.87500005E-02   7.84842744E-25
   2.99999993E-02   9.39677798E-25
   3.12500000E-02   9.37178490E-25
   3.24999988E-02   7.24173670E-25
   3.37500013E-02   2.76394034E-25
   3.50000001E-02  -3.86844692E-25
   3.62499990E-02  -1.19287444E-24
   3.75000015E-02  -2.01446282E-24
   3.87500003E-02  -2.68002358E-24
   3.99999991E-02  -2.99649268E-24
   4.12500016E-02  -2.78375484E-24
   4.25000004E-02  -1.91670915E-24
   4.37499993E-02  -3.68306116E-25
   4.50000018E-02   1.75522123E-24
   4.62500006E-02   4.19655187E-24
   4.74999994E-02   6.55557336E-24
   4.87499982E-02   8.32943241E-24
   5.00000007E-02   8.98498924E-24
   5.12499996E-02   8.05781656E-24
   5.24999984E-02   5.26490107E-24
   5.37500009E-02   6.11974477E-25
   5.49999997E-02  -5.52754876E-24
   5.62499985E-02  -1.23853410E-23
   5.75000010E-02  -1.88416303E-23
   5.87499999E-02  -2.35491452E-23
   5.99999987E-02  -2.51338011E-23
   6.12500012E-02  -2.24523319E-23
   6.25000000E-02  -1.48709605E-23
   6.37499988E-02  -2.51625862E-24
   6.49999976E-02   1.35571127E-23
   6.62499964E-02   3.13342746E-23
   6.75000027E-02   4.79824204E-23
   6.87500015E-02   6.01819208E-23
   7.00000003E-02   6.46277578E-23
   7.12499991E-02   5.86460212E-23
   7.24999979E-02   4.08355646E-23
   7.37499967E-02   1.16197350E-23
   7.50000030E-02  -2.64157190E-23
   7.62500018E-02  -6.85097171E-23
   7.75000006E-02  -1.08112251E-22
   7.87499994E-02  -1.37685675E-22
   7.99999982E-02  -1.49861812E-22
   8.12499970E-02  -1.38816245E-22
   8.25000033E-02  -1.01650736E-22
   8.37500021E-02  -3.95287345E-23
   8.50000009E-02   4.16988120E-23
   8.62499997E-02   1.31599947E-22
   8.74999985E-02   2.16132540E-22
   8.87499973E-02   2.79477111E-22
   9.00000036E-02   3.06566999E-22
   9.12500024E-02   2.85986665E-22
   9.25000012E-02   2.12770932E-22
   9.37500000E-02   9.05611877E-23
   9.49999988E-02  -6.74169617E-23
   9.62499976E-02  -2.38977725E-22
   9.74999964E-02  -3.95407580E-22
   9.87500027E-02  -5.05612837E-22
  0.100000001      -5.41542485E-22
  0.101250000      -4.84112502E-22
  0.102499999      -3.28598382E-22
  0.103749998      -8.83484266E-23
  0.104999997       2.04250831E-22
  0.106250003       5.00324010E-22
  0.107500002       7.40823694E-22
  0.108750001       8.66193609E-22
  0.109999999       8.28215396E-22
  0.111249998       6.02198088E-22
  0.112499997       1.97191586E-22
  0.113750003      -3.38228720E-22
  0.115000002      -9.16753913E-22
  0.116250001      -1.42106893E-21
  0.117500000      -1.72064715E-21
  0.118749999      -1.69521135E-21
  0.119999997      -1.26184534E-21
  0.121250004      -4.01333099E-22
  0.122500002       8.21590681E-22
  0.123750001       2.24947789E-21
  0.125000000       3.63937659E-21
  0.126249999       4.68852312E-21
  0.127499998       5.07812156E-21
  0.128749996       4.53131519E-21
  0.129999995       2.87787141E-21
  0.131249994       1.15076467E-22
  0.132499993      -3.54744605E-21
  0.133750007      -7.67120919E-21
  0.135000005      -1.16105284E-20
  0.136250004      -1.45776398E-20
  0.137500003      -1.57498872E-20
  0.138750002      -1.44096947E-20
  0.140000001      -1.01000490E-20
  0.141249999      -2.77150439E-21
  0.142499998       7.10720772E-21
  0.143749997       1.85027960E-20
  0.144999996       2.98580762E-20
  0.146249995       3.92324947E-20
  0.147499993       4.45408778E-20
  0.148750007       4.38716273E-20
  0.150000006       3.58480044E-20
  0.151250005       1.99811099E-20
  0.152500004      -3.04632606E-21
  0.153750002      -3.12273347E-20
  0.155000001      -6.12622822E-20
  0.156250000      -8.88080816E-20
  0.157499999      -1.08949393E-19
  0.158749998      -1.16860846E-19
  0.159999996      -1.08592064E-19
  0.161249995      -8.18742272E-20
  0.162499994      -3.68235961E-20
  0.163749993       2.35895561E-20
  0.165000007       9.34259143E-20
  0.166250005       1.64101518E-19
  0.167500004       2.25183714E-19
  0.168750003       2.65622636E-19
  0.170000002       2.75308145E-19
  0.171250001       2.46771939E-19
  0.172499999       1.76800486E-19
  0.173749998       6.76976569E-20
  0.174999997      -7.20552185E-20
  0.176249996      -2.27945360E-19
  0.177499995      -3.80495792E-19
  0.178749993      -5.07249485E-19
  0.180000007      -5.85527448E-19
  0.181250006      -5.95680004E-19
  0.182500005      -5.24431991E-19
  0.183750004      -3.67846546E-19
  0.185000002      -1.33414837E-19
  0.186250001       1.59167606E-19
  0.187500000       4.78851961E-19
  0.188749999       7.85838694E-19
  0.189999998       1.03581965E-18
  0.191249996       1.18549613E-18
  0.192499995       1.19877258E-18
  0.193749994       1.05284582E-18
  0.194999993       7.43315148E-19
  0.196250007       2.87458032E-19
  0.197500005      -2.75041715E-19
  0.198750004      -8.84361334E-19
  0.200000003      -1.46588988E-18
  0.201250002      -1.93833088E-18
  0.202500001      -2.22379960E-18
  0.203749999      -2.25878210E-18
  0.204999998      -2.00456737E-18
  0.206249997      -1.45566076E-18
  0.207499996      -6.44782118E-19
  0.208749995       3.56645461E-19
  0.209999993       1.44312794E-18
  0.211250007       2.48484167E-18
  0.212500006       3.34177555E-18
  0.213750005       3.88089403E-18
  0.215000004       3.99437742E-18
  0.216250002       3.61663340E-18
  0.217500001       2.73768969E-18
  0.218750000       1.41080007E-18
  0.219999999      -2.47371128E-19
  0.221249998      -2.06480370E-18
  0.222499996      -3.83022963E-18
  0.223749995      -5.31603420E-18
  0.224999994      -6.30566150E-18
  0.226249993      -6.62241998E-18
  0.227500007      -6.15609277E-18
  0.228750005      -4.88369047E-18
  0.230000004      -2.88109344E-18
  0.231250003      -3.23202368E-19
  0.232500002       2.52852073E-18
  0.233750001       5.35071457E-18
  0.234999999       7.79296202E-18
  0.236249998       9.51930285E-18
  0.237499997       1.02517167E-17
  0.238749996       9.81022227E-18
  0.239999995       8.14417216E-18
  0.241249993       5.34999079E-18
  0.242500007       1.67191369E-18
  0.243750006      -2.51584378E-18
  0.245000005      -6.74481789E-18
  0.246250004      -1.05029215E-17
  0.247500002      -1.32948017E-17
  0.248750001      -1.47050760E-17
  0.250000000      -1.44566604E-17
  0.251249999      -1.24563689E-17
  0.252499998      -8.82093411E-18
  0.253749996      -3.87851382E-18
  0.254999995       1.85650742E-18
  0.256249994       7.73437944E-18
  0.257499993       1.30420839E-17
  0.258749992       1.70891246E-17
  0.259999990       1.92970599E-17
  0.261249989       1.92814907E-17
  0.262499988       1.69152446E-17
  0.263749987       1.23629587E-17
  0.264999986       6.08016669E-18
  0.266250014      -1.22593109E-18
  0.267500013      -8.67202340E-18
  0.268750012      -1.53035792E-17
  0.270000011      -2.02175085E-17
  0.271250010      -2.26875856E-17
  0.272500008      -2.22758300E-17
  0.273750007      -1.89133590E-17
  0.275000006      -1.29367888E-17
  0.276250005      -5.07100428E-18
  0.277500004       3.64437539E-18
  0.278750002       1.19799360E-17
  0.280000001       1.86801784E-17
  0.281250000       2.26465210E-17
  0.282499999       2.31152529E-17
  0.283749998       1.98040373E-17
  0.284999996       1.30020533E-17
  0.286249995       3.58406068E-18
  0.287499994      -7.06265419E-18
  0.288749993      -1.71981586E-17
  0.289999992      -2.49635317E-17
  0.291249990      -2.86626917E-17
  0.292499989      -2.70562920E-17
  0.293749988      -1.96249609E-17
  0.294999987      -6.75776617E-18
  0.296249986       1.01732760E-17
  0.297500014       2.88804685E-17
  0.298750013       4.63802783E-17
  0.300000012       5.93554698E-17
  0.301250011       6.46265823E-17
  0.302500010       5.96785798E-17
  0.303750008       4.31721874E-17
  0.305000007       1.53607225E-17
  0.306250006      -2.16649339E-17
  0.307500005      -6.39674253E-17
  0.308750004      -1.06029731E-16
  0.310000002      -1.41303148E-16
  0.311250001      -1.63001962E-16
  0.312500000      -1.65068934E-16
  0.313749999      -1.43199165E-16
  0.314999998      -9.57836173E-17
  0.316249996      -2.46233636E-17
  0.317499995       6.47251822E-17
  0.318749994       1.63083184E-16
  0.319999993       2.58318897E-16
  0.321249992       3.36545672E-16
  0.322499990       3.83764820E-16
  0.323749989       3.87794500E-16
  0.324999988       3.40261764E-16
  0.326249987       2.38391758E-16
  0.327499986       8.63158999E-17
  0.328750014      -1.04354810E-16
  0.330000013      -3.14882672E-16
  0.331250012      -5.20775761E-16
  0.332500011      -6.94148530E-16
  0.333750010      -8.06900844E-16
  0.335000008      -8.34410303E-16
  0.336250007      -7.59320515E-16
  0.337500006      -5.74935207E-16
  0.338750005      -2.87710675E-16
  0.340000004       8.16119090E-17
  0.341250002       4.98576351E-16
  0.342500001       9.17449549E-16
  0.343750000       1.28546969E-15
  0.344999999       1.54860291E-15
  0.346249998       1.65826901E-15
  0.347499996       1.57829841E-15
  0.348749995       1.29125684E-15
  0.349999994       8.03241662E-16
  0.351249993       1.46335821E-16
  0.352499992      -6.21899690E-16
  0.353749990      -1.42221332E-15
  0.354999989      -2.16067051E-15
  0.356249988      -2.73840712E-15
  0.357499987      -3.06324531E-15
  0.358749986      -3.06194787E-15
  0.360000014      -2.69165937E-15
  0.361250013      -1.94900947E-15
  0.362500012      -8.75464455E-16
  0.363750011       4.42181533E-16
  0.365000010       1.87681283E-15
  0.366250008       3.27152203E-15
  0.367500007       4.45501298E-15
  0.368750006       5.26055106E-15
  0.370000005       5.54655300E-15
  0.371250004       5.21649730E-15
  0.372500002       4.23566449E-15
  0.373750001       2.64233643E-15
  0.375000000       5.51500293E-16
  0.376249999      -1.85019651E-15
  0.377499998      -4.31856741E-15
  0.378749996      -6.57435591E-15
  0.379999995      -8.33224447E-15
  0.381249994      -9.33363646E-15
  0.382499993      -9.37970997E-15
  0.383749992      -8.36086232E-15
  0.384999990      -6.27872066E-15
  0.386249989      -3.25739585E-15
  0.387499988       4.58395067E-16
  0.388749987       4.51938156E-15
  0.389999986       8.50145793E-15
  0.391250014       1.19469017E-14
  0.392500013       1.44133938E-14
  0.393750012       1.55258920E-14
  0.395000011       1.50256360E-14
  0.396250010       1.28103984E-14
  0.397500008       8.96057859E-15
  0.398750007       3.74691335E-15
  0.400000006      -2.38267954E-15
  0.401250005      -8.83741915E-15
  0.402500004      -1.49370432E-14
  0.403750002      -1.99798098E-14
  0.405000001      -2.33186527E-14
  0.406250000      -2.44375866E-14
  0.407499999      -2.30197822E-14
  0.408749998      -1.89990371E-14
  0.409999996      -1.25875838E-14
  0.411249995      -4.27528784E-15
  0.412499994       5.20184532E-15
  0.413749993       1.49226758E-14
  0.414999992       2.38668829E-14
  0.416249990       3.10182008E-14
  0.417499989       3.54748037E-14
  0.418749988       3.65552146E-14
  0.419999987       3.38877824E-14
  0.421249986       2.74728530E-14
  0.422500014       1.77089466E-14
  0.423750013       5.37771562E-15
  0.425000012      -8.41337582E-15
  0.426250011      -2.23271617E-14
  0.427500010      -3.49237071E-14
  0.428750008      -4.48062506E-14
  0.430000007      -5.07716021E-14
  0.431250006      -5.19490355E-14
  0.432500005      -4.79121137E-14
  0.433750004      -3.87498837E-14
  0.435000002      -2.50875506E-14
  0.436250001      -8.05165887E-15
  0.437500000       1.08194906E-14
  0.438749999       2.97135228E-14
  0.439999998       4.67175940E-14
  0.441249996       6.00112746E-14
  0.442499995       6.80592803E-14
  0.443749994       6.97835954E-14
  0.444999993       6.46959564E-14
  0.446249992       5.29749245E-14
  0.447499990       3.54771076E-14
  0.448749989       1.36786029E-14
  0.449999988      -1.04499624E-14
  0.451249987      -3.46242844E-14
  0.452499986      -5.64662554E-14
  0.453750014      -7.37413060E-14
  0.455000013      -8.45890334E-14
  0.456250012      -8.77229197E-14
  0.457500011      -8.25774318E-14
  0.458750010      -6.93857542E-14
  0.460000008      -4.91782484E-14
  0.461250007      -2.36998531E-14
  0.462500006       4.74689673E-15
  0.463750005       3.35185540E-14
  0.465000004       5.98858934E-14
  0.466250002       8.13018476E-14
  0.467500001       9.56549157E-14
  0.468750000       1.01481737E-13
  0.469999999       9.81166713E-14
  0.471249998       8.57626077E-14
  0.472499996       6.54753961E-14
  0.473749995       3.90633265E-14
  0.474999994       8.91204530E-15
  0.476249993      -2.22468765E-14
  0.477499992      -5.15997259E-14
  0.478749990      -7.65194928E-14
  0.479999989      -9.48123687E-14
  0.481249988      -1.04917140E-13
  0.482499987      -1.06038225E-13
  0.483749986      -9.82005682E-14
  0.485000014      -8.22231755E-14
  0.486250013      -5.96168826E-14
  0.487500012      -3.24198574E-14
  0.488750011      -2.99044813E-15
  0.490000010       2.62192747E-14
  0.491250008       5.28849764E-14
  0.492500007       7.50042593E-14
  0.493750006       9.10457080E-14
  0.495000005       1.00041279E-13
  0.496250004       1.01617824E-13
  0.497500002       9.59709946E-14
  0.498750001       8.37912435E-14
  0.500000000       6.61563970E-14
  0.501250029       4.44077351E-14
  0.502499998       2.00264491E-14
  0.503750026      -5.47516803E-15
  0.504999995      -3.06378932E-14
  0.506250024      -5.41108126E-14
  0.507499993      -7.46793781E-14
  0.508750021      -9.12732075E-14
  0.509999990      -1.02964268E-13
  0.511250019      -1.08967617E-13
  0.512499988      -1.08655753E-13
  0.513750017      -1.01594250E-13
  0.514999986      -8.76008792E-14
  0.516250014      -6.68238251E-14
  0.517499983      -3.98280110E-14
  0.518750012      -7.67305886E-15
  0.519999981       2.80369667E-14
  0.521250010       6.51521073E-14
  0.522499979       1.01040270E-13
  0.523750007       1.32726377E-13
  0.524999976       1.57107576E-13
  0.526250005       1.71233850E-13
  0.527499974       1.72631603E-13
  0.528750002       1.59637521E-13
  0.529999971       1.31702646E-13
  0.531250000       8.96236481E-14
  0.532500029       3.56608325E-14
  0.533749998      -2.64891868E-14
  0.535000026      -9.18846501E-14
  0.536249995      -1.54694332E-13
  0.537500024      -2.08698185E-13
  0.538749993      -2.47893177E-13
  0.540000021      -2.67147307E-13
  0.541249990      -2.62831830E-13
  0.542500019      -2.33357170E-13
  0.543749988      -1.79540912E-13
  0.545000017      -1.04748614E-13
  0.546249986      -1.47694408E-14
  0.547500014       8.25848382E-14
  0.548749983       1.78137358E-13
  0.550000012       2.62208712E-13
  0.551249981       3.25605021E-13
  0.552500010       3.60630904E-13
  0.553749979       3.62015837E-13
  0.555000007       3.27643484E-13
  0.556249976       2.58988035E-13
  0.557500005       1.61187849E-13
  0.558749974       4.27234711E-14
  0.560000002      -8.52905596E-14
  0.561249971      -2.10145662E-13
  0.562500000      -3.18815395E-13
  0.563750029      -3.99339687E-13
  0.564999998      -4.42168573E-13
  0.566250026      -4.41313083E-13
  0.567499995      -3.95164045E-13
  0.568750024      -3.06869493E-13
  0.569999993      -1.84205773E-13
  0.571250021      -3.89315960E-14
  0.572499990       1.14327574E-13
  0.573750019       2.59561578E-13
  0.574999988       3.81074133E-13
  0.576250017       4.65216461E-13
  0.577499986       5.01961970E-13
  0.578750014       4.86138094E-13
  0.579999983       4.18161599E-13
  0.581250012       3.04174925E-13
  0.582499981       1.55544983E-13
  0.583750010      -1.22425788E-14
  0.584999979      -1.81190227E-13
  0.586250007      -3.32731184E-13
  0.587499976      -4.49798022E-13
  0.588750005      -5.18784939E-13
  0.589999974      -5.31175581E-13
  0.591250002      -4.84638534E-13
  0.592499971      -3.83447668E-13
  0.593750000      -2.38157991E-13
  0.595000029      -6.45507953E-14
  0.596249998       1.18051226E-13
  0.597500026       2.88922749E-13
  0.598749995       4.28293360E-13
  0.600000024       5.19655716E-13
  0.601249993       5.51753630E-13
  0.602500021       5.20008732E-13
  0.603749990       4.27202625E-13
  0.605000019       2.83313656E-13
  0.606249988       1.04504194E-13
  0.607500017      -8.86459078E-14
  0.608749986      -2.73471675E-13
  0.610000014      -4.27860519E-13
  0.611249983      -5.32890680E-13
  0.612500012      -5.75156838E-13
  0.613749981      -5.48497120E-13
  0.615000010      -4.54899139E-13
  0.616249979      -3.04453619E-13
  0.617500007      -1.14334377E-13
  0.618749976       9.31004406E-14
  0.620000005       2.92882634E-13
  0.621249974       4.60393279E-13
  0.622500002       5.74361522E-13
  0.623749971       6.19541419E-13
  0.625000000       5.88733652E-13
  0.626250029       4.83887182E-13
  0.627499998       3.16119147E-13
  0.628750026       1.04616856E-13
  0.629999995      -1.25479881E-13
  0.631250024      -3.45990868E-13
  0.632499993      -5.29072933E-13
  0.633750021      -6.50665882E-13
  0.634999990      -6.93588795E-13
  0.636250019      -6.49896044E-13
  0.637499988      -5.22179142E-13
  0.638750017      -3.23618167E-13
  0.639999986      -7.67311223E-14
  0.641250014       1.89073109E-13
  0.642499983       4.40883251E-13
  0.643750012       6.46236157E-13
  0.644999981       7.77167230E-13
  0.646250010       8.13868938E-13
  0.647499979       7.47494026E-13
  0.648750007       5.81725803E-13
  0.649999976       3.32873404E-13
  0.651250005       2.84187092E-14
  0.652499974      -2.95873027E-13
  0.653750002      -5.99987941E-13
  0.654999971      -8.44402348E-13
  0.656250000      -9.94980140E-13
  0.657500029      -1.02744170E-12
  0.658749998      -9.30842968E-13
  0.660000026      -7.09600185E-13
  0.661249995      -3.83748453E-13
  0.662500024       1.26773507E-14
  0.663749993       4.35031975E-13
  0.665000021       8.32895601E-13
  0.666249990       1.15584593E-12
  0.667500019       1.35952111E-12
  0.668749988       1.41126802E-12
  0.670000017       1.29468550E-12
  0.671249986       1.01247407E-12
  0.672500014       5.87176683E-13
  0.673749983       5.96253393E-14
  0.675000012      -5.14833293E-13
  0.676249981      -1.07199536E-12
  0.677500010      -1.54577056E-12
  0.678749979      -1.87571920E-12
  0.680000007      -2.01431233E-12
  0.681249976      -1.93306764E-12
  0.682500005      -1.62680936E-12
  0.683749974      -1.11548433E-12
  0.685000002      -4.43220574E-13
  0.686249971       3.25380104E-13
  0.687500000       1.11141424E-12
  0.688750029       1.82972235E-12
  0.689999998       2.39798264E-12
  0.691250026       2.74588251E-12
  0.692499995       2.82335353E-12
  0.693750024       2.60692596E-12
  0.694999993       2.10343678E-12
  0.696250021       1.35059347E-12
  0.697499990       4.14225728E-13
  0.698750019      -6.17581615E-13
  0.699999988      -1.64293861E-12
  0.701250017      -2.55634728E-12
  0.702499986      -3.25960244E-12
  0.703750014      -3.67225087E-12
  0.704999983      -3.74048535E-12
  0.706250012      -3.44349527E-12
  0.707499981      -2.79655053E-12
  0.708750010      -1.85042866E-12
  0.709999979      -6.87180131E-13
  0.711250007       5.87387777E-13
  0.712499976       1.85377451E-12
  0.713750005       2.99039070E-12
  0.714999974       3.88552471E-12
  0.716250002       4.44845376E-12
  0.717499971       4.61856465E-12
  0.718750000       4.37154783E-12
  0.720000029       3.72204568E-12
  0.721249998       2.72249150E-12
  0.722500026       1.45827632E-12
  0.723749995       3.97519677E-14
  0.725000024      -1.40811050E-12
  0.726249993      -2.75736400E-12
  0.727500021      -3.88885668E-12
  0.728749990      -4.70298973E-12
  0.730000019      -5.12846406E-12
  0.731249988      -5.12822163E-12
  0.732500017      -4.70209852E-12
  0.733749986      -3.88607289E-12
  0.735000014      -2.74831590E-12
  0.736249983      -1.38252799E-12
  0.737500012       1.00645993E-13
  0.738749981       1.58326336E-12
  0.740000010       2.94987602E-12
  0.741249979       4.09655946E-12
  0.742500007       4.93847021E-12
  0.743749976       5.41542462E-12
  0.745000005       5.49519544E-12
  0.746249974       5.17449104E-12
  0.747500002       4.47781742E-12
  0.748749971       3.45453050E-12
  0.750000000       2.17457866E-12
  0.751250029       7.23392537E-13
  0.752499998      -8.03700476E-13
  0.753750026      -2.30705993E-12
  0.754999995      -3.68811882E-12
  0.756250024      -4.85443977E-12
  0.757499993      -5.72433767E-12
  0.758750021      -6.23110548E-12
  0.759999990      -6.32684139E-12
  0.761250019      -5.98582555E-12
  0.762499988      -5.20743474E-12
  0.763750017      -4.01828397E-12
  0.764999986      -2.47326552E-12
  0.766250014      -6.55257803E-13
  0.767499983       1.32705327E-12
  0.768750012       3.34344358E-12
  0.769999981       5.24869774E-12
  0.771250010       6.89152641E-12
  0.772499979       8.12536063E-12
  0.773750007       8.82062565E-12
  0.774999976       8.87743178E-12
  0.776250005       8.23734397E-12
  0.777499974       6.89342246E-12
  0.778750002       4.89686503E-12
  0.779999971       2.35896155E-12
  0.781250000      -5.52085179E-13
  0.782500029      -3.62017295E-12
  0.783749998      -6.59584236E-12
  0.785000026      -9.21573234E-12
  0.786249995      -1.12255647E-11
  0.787500024      -1.24043796E-11
  0.788749993      -1.25881302E-11
  0.790000021      -1.16899077E-11
  0.791249990      -9.71457637E-12
  0.792500019      -6.76590338E-12
  0.793749988      -3.04449022E-12
  0.795000017       1.16381048E-12
  0.796249986       5.50897088E-12
  0.797500014       9.60576497E-12
  0.798749983       1.30676615E-11
  0.800000012       1.55436931E-11
  0.801249981       1.67548007E-11
  0.802500010       1.65245404E-11
  0.803749979       1.48015888E-11
  0.805000007       1.16721728E-11
  0.806249976       7.35920266E-12
  0.807500005       2.20802586E-12
  0.808749974      -3.34146382E-12
  0.810000002      -8.79234359E-12
  0.811249971      -1.36351017E-11
  0.812500000      -1.73967750E-11
  0.813750029      -1.96888218E-11
  0.814999998      -2.02471477E-11
  0.816250026      -1.89618599E-11
  0.817499995      -1.58943449E-11
  0.818750024      -1.12766541E-11
  0.819999993      -5.49524575E-12
  0.821250021       9.41967858E-13
  0.822499990       7.45078044E-12
  0.823750019       1.34247726E-11
  0.824999988       1.82937641E-11
  0.826250017       2.15799496E-11
  0.827499986       2.29454650E-11
  0.828750014       2.22275098E-11
  0.829999983       1.94599753E-11
  0.831250012       1.48718919E-11
  0.832499981       8.86691241E-12
  0.833750010       1.98866097E-12
  0.834999979      -5.12915318E-12
  0.836250007      -1.18234771E-11
  0.837499976      -1.74662368E-11
  0.838750005      -2.15242529E-11
  0.839999974      -2.36098363E-11
  0.841250002      -2.35201043E-11
  0.842499971      -2.12574021E-11
  0.843750000      -1.70284863E-11
  0.845000029      -1.12251580E-11
  0.846249998      -4.38652066E-12
  0.847500026       2.85277726E-12
  0.848749995       9.82457692E-12
  0.850000024       1.58899456E-11
  0.851249993       2.04973382E-11
  0.852500021       2.32375248E-11
  0.853749990       2.38789821E-11
  0.855000019       2.23881400E-11
  0.856249988       1.89291482E-11
  0.857500017       1.38436285E-11
  0.858749986       7.61428594E-12
  0.860000014       8.13678226E-13
  0.861249983      -5.94432229E-12
  0.862500012      -1.20634492E-11
  0.863749981      -1.70230254E-11
  0.865000010      -2.04219801E-11
  0.866249979      -2.20107734E-11
  0.867500007      -2.17093548E-11
  0.868749976      -1.96076332E-11
  0.870000005      -1.59463449E-11