 -0.200000003       0.00000000    
 -0.198750004       0.00000000    
 -0.197500005       0.00000000    
 -0.196250007       0.00000000    
 -0.194999993       0.00000000    
 -0.193749994       0.00000000    
 -0.192499995       0.00000000    
 -0.191249996       0.00000000    
 -0.189999998       0.00000000    
 -0.188749999       0.00000000    
 -0.187500000       0.00000000    
 -0.186250001       0.00000000    
 -0.185000002       0.00000000    
 -0.183750004       0.00000000    
 -0.182500005       0.00000000    
 -0.181250006       0.00000000    
 -0.180000007       0.00000000    
 -0.178749993       0.00000000    
 -0.177499995       0.00000000    
 -0.176249996       0.00000000    
 -0.174999997       0.00000000    
 -0.173749998       0.00000000    
 -0.172499999       0.00000000    
 -0.171250001       0.00000000    
 -0.170000002       0.00000000    
 -0.168750003       0.00000000    
 -0.167500004       0.00000000    
 -0.166250005       0.00000000    
 -0.165000007       0.00000000    
 -0.163749993       0.00000000    
 -0.162499994       0.00000000    
 -0.161249995       0.00000000    
 -0.159999996       0.00000000    
 -0.158749998       0.00000000    
 -0.157499999       0.00000000    
 -0.156250000       0.00000000    
 -0.155000001       0.00000000    
 -0.153750002       0.00000000    
 -0.152500004       0.00000000    
 -0.151250005       0.00000000    
 -0.150000006       0.00000000    
 -0.148750007       0.00000000    
 -0.147499993       0.00000000    
 -0.146249995       0.00000000    
 -0.144999996       0.00000000    
 -0.143749997       0.00000000    
 -0.142499998       0.00000000    
 -0.141249999       0.00000000    
 -0.140000001       0.00000000    
 -0.138750002       0.00000000    
 -0.137500003       0.00000000    
 -0.136250004       0.00000000    
 -0.135000005       0.00000000    
 -0.133750007       0.00000000    
 -0.132499993       0.00000000    
 -0.131249994       0.00000000    
 -0.129999995       0.00000000    
 -0.128749996       0.00000000    
 -0.127499998       0.00000000    
 -0.126249999       0.00000000    
 -0.125000000       0.00000000    
 -0.123750001       0.00000000    
 -0.122500002       0.00000000    
 -0.121250004       0.00000000    
 -0.119999997       0.00000000    
 -0.118749999       0.00000000    
 -0.117500000       0.00000000    
 -0.116250001       0.00000000    
 -0.115000002       0.00000000    
 -0.113750003       0.00000000    
 -0.112499997       0.00000000    
 -0.111249998       0.00000000    
 -0.109999999       0.00000000    
 -0.108750001       0.00000000    
 -0.107500002       0.00000000    
 -0.106250003       0.00000000    
 -0.104999997       0.00000000    
 -0.103749998       0.00000000    
 -0.102499999       0.00000000    
 -0.101250000       0.00000000    
 -0.100000001       0.00000000    
  -9.87500027E-02   0.00000000    
  -9.74999964E-02   0.00000000    
  -9.62499976E-02   0.00000000    
  -9.49999988E-02   0.00000000    
  -9.37500000E-02   0.00000000    
  -9.25000012E-02   0.00000000    
  -9.12500024E-02   0.00000000    
  -9.00000036E-02   0.00000000    
  -8.87499973E-02   0.00000000    
  -8.74999985E-02   0.00000000    
  -8.62499997E-02   0.00000000    
  -8.50000009E-02   0.00000000    
  -8.37500021E-02   0.00000000    
  -8.25000033E-02   0.00000000    
  -8.12499970E-02   0.00000000    
  -7.99999982E-02   0.00000000    
  -7.87499994E-02   0.00000000    
  -7.75000006E-02   0.00000000    
  -7.62500018E-02   0.00000000    
  -7.50000030E-02   0.00000000    
  -7.37499967E-02   0.00000000    
  -7.24999979E-02   0.00000000    
  -7.12499991E-02   0.00000000    
  -7.00000003E-02   0.00000000    
  -6.87500015E-02   0.00000000    
  -6.75000027E-02   0.00000000    
  -6.62499964E-02   0.00000000    
  -6.49999976E-02   0.00000000    
  -6.37499988E-02   0.00000000    
  -6.25000000E-02   0.00000000    
  -6.12500012E-02   0.00000000    
  -5.99999987E-02   0.00000000    
  -5.87499999E-02   0.00000000    
  -5.75000010E-02   0.00000000    
  -5.62499985E-02   0.00000000    
  -5.49999997E-02   0.00000000    
  -5.37500009E-02   0.00000000    
  -5.24999984E-02   0.00000000    
  -5.12499996E-02   0.00000000    
  -5.00000007E-02   0.00000000    
  -4.87499982E-02   0.00000000    
  -4.74999994E-02   0.00000000    
  -4.62500006E-02   0.00000000    
  -4.50000018E-02   0.00000000    
  -4.37499993E-02   0.00000000    
  -4.25000004E-02   0.00000000    
  -4.12500016E-02   0.00000000    
  -3.99999991E-02   0.00000000    
  -3.87500003E-02   0.00000000    
  -3.75000015E-02   0.00000000    
  -3.62499990E-02   0.00000000    
  -3.50000001E-02   0.00000000    
  -3.37500013E-02   0.00000000    
  -3.24999988E-02   0.00000000    
  -3.12500000E-02   0.00000000    
  -2.99999993E-02   0.00000000    
  -2.87500005E-02   0.00000000    
  -2.74999999E-02   0.00000000    
  -2.62499992E-02   0.00000000    
  -2.50000004E-02   0.00000000    
  -2.37499997E-02   0.00000000    
  -2.25000009E-02   0.00000000    
  -2.12500002E-02   0.00000000    
  -1.99999996E-02   0.00000000    
  -1.87500007E-02   0.00000000    
  -1.75000001E-02   0.00000000    
  -1.62499994E-02   0.00000000    
  -1.49999997E-02   0.00000000    
  -1.37499999E-02   0.00000000    
  -1.25000002E-02   0.00000000    
  -1.12500004E-02   0.00000000    
  -9.99999978E-03   0.00000000    
  -8.75000004E-03   0.00000000    
  -7.49999983E-03   0.00000000    
  -6.25000009E-03   0.00000000    
  -4.99999989E-03   0.00000000    
  -3.74999992E-03   0.00000000    
  -2.49999994E-03   0.00000000    
  -1.24999997E-03   0.00000000    
   0.00000000       0.00000000    
   1.24999997E-03   0.00000000    
   2.49999994E-03   0.00000000    
   3.74999992E-03   0.00000000    
   4.99999989E-03   0.00000000    
   6.25000009E-03   0.00000000    
   7.49999983E-03   0.00000000    
   8.75000004E-03   0.00000000    
   9.99999978E-03   0.00000000    
   1.12500004E-02   0.00000000    
   1.25000002E-02   0.00000000    
   1.37499999E-02   0.00000000    
   1.49999997E-02   0.00000000    
   1.62499994E-02   0.00000000    
   1.75000001E-02   0.00000000    
   1.87500007E-02   0.00000000    
   1.99999996E-02   0.00000000    
   2.12500002E-02   0.00000000    
   2.25000009E-02   0.00000000    
   2.37499997E-02   0.00000000    
   2.50000004E-02   0.00000000    
   2.62499992E-02   0.00000000    
   2.74999999E-02   0.00000000    
   2.87500005E-02   0.00000000    
   2.99999993E-02   0.00000000    
   3.12500000E-02   0.00000000    
   3.24999988E-02   0.00000000    
   3.37500013E-02   0.00000000    
   3.50000001E-02   0.00000000    
   3.62499990E-02   0.00000000    
   3.75000015E-02   0.00000000    
   3.87500003E-02   0.00000000    
   3.99999991E-02   0.00000000    
   4.12500016E-02   0.00000000    
   4.25000004E-02   0.00000000    
   4.37499993E-02   0.00000000    
   4.50000018E-02   0.00000000    
   4.62500006E-02   0.00000000    
   4.74999994E-02   0.00000000    
   4.87499982E-02   0.00000000    
   5.00000007E-02   0.00000000    
   5.12499996E-02   0.00000000    
   5.24999984E-02   0.00000000    
   5.37500009E-02   0.00000000    
   5.49999997E-02   1.40129846E-45
   5.62499985E-02   4.20389539E-45
   5.75000010E-02   8.40779079E-45
   5.87499999E-02   1.26116862E-44
   5.99999987E-02   1.82168800E-44
   6.12500012E-02   2.10194770E-44
   6.25000000E-02   2.10194770E-44
   6.37499988E-02   1.68155816E-44
   6.49999976E-02   8.40779079E-45
   6.62499964E-02  -5.60519386E-45
   6.75000027E-02  -2.38220739E-44
   6.87500015E-02  -4.48415509E-44
   7.00000003E-02  -6.44597294E-44
   7.12499991E-02  -8.12753109E-44
   7.24999979E-02  -8.68805048E-44
   7.37499967E-02  -7.84727140E-44
   7.50000030E-02  -4.90454463E-44
   7.62500018E-02   1.40129846E-45
   7.75000006E-02   7.14662217E-44
   7.87499994E-02   1.56945428E-43
   7.99999982E-02   2.48029828E-43
   8.12499970E-02   3.26502542E-43
   8.25000033E-02   3.74146690E-43
   8.37500021E-02   3.65738899E-43
   8.50000009E-02   2.78858394E-43
   8.62499997E-02   9.66895940E-44
   8.74999985E-02  -1.87773994E-43
   8.87499973E-02  -5.60519386E-43
   9.00000036E-02  -9.86514119E-43
   9.12500024E-02  -1.40269976E-42
   9.25000012E-02  -1.71939322E-42
   9.37500000E-02  -1.82869450E-42
   9.49999988E-02  -1.61709843E-42
   9.62499976E-02  -9.87915417E-43
   9.74999964E-02   1.16307773E-43
   9.87500027E-02   1.68295946E-42
  0.100000001       3.60834355E-42
  0.101250000       5.66825229E-42
  0.102499999       7.52076886E-42
  0.103749998       8.71887905E-42
  0.104999997       8.75531281E-42
  0.106250003       7.13541178E-42
  0.107500002       3.47241759E-42
  0.108750001      -2.38781258E-42
  0.109999999      -1.02476957E-41
  0.111249998      -1.94556279E-41
  0.112499997      -2.88387224E-41
  0.113750003      -3.67252302E-41
  0.115000002      -4.10482359E-41
  0.116250001      -3.95824777E-41
  0.117500000      -3.02848624E-41
  0.118749999      -1.17414798E-41
  0.119999997       1.63335349E-41
  0.121250004       5.26117508E-41
  0.122500002       9.37861036E-41
  0.123750001       1.34405542E-40
  0.125000000       1.67054395E-40
  0.126249999       1.82929705E-40
  0.127499998       1.72879593E-40
  0.128749996       1.28873216E-40
  0.129999995       4.57902299E-41
  0.131249994      -7.66496247E-41
  0.132499993      -2.32126492E-40
  0.133750007      -4.06452225E-40
  0.135000005      -5.77197640E-40
  0.136250004      -7.14533297E-40
  0.137500003      -7.83578075E-40
  0.138750002      -7.48312998E-40
  0.140000001      -5.76973432E-40
  0.141249999      -2.48528690E-40
  0.142499998       2.40392752E-40
  0.143749997       8.69025052E-40
  0.144999996       1.58749880E-39
  0.146249995       2.31456251E-39
  0.147499993       2.93913104E-39
  0.148750007       3.32663351E-39
  0.150000006       3.33084441E-39
  0.151250005       2.81138868E-39
  0.152500004       1.65652676E-39
  0.153750002      -1.89965625E-40
  0.155000001      -2.69992519E-39
  0.156250000      -5.73314642E-39
  0.157499999      -9.01529711E-39
  0.158749998      -1.21269322E-38
  0.159999996      -1.45100827E-38
  0.161249995      -1.54992340E-38
  0.162499994      -1.43828798E-38
  0.163749993      -1.04997248E-38
  0.165000007      -3.36936330E-39
  0.166250005       7.14918795E-39
  0.167500004       2.06864051E-38
  0.168750003       3.62042666E-38
  0.170000002       5.18872571E-38
  0.171250001       6.51263607E-38
  0.172499999       7.26429200E-38
  0.173749998       7.07932789E-38
  0.174999997       5.60777673E-38
  0.176249996       2.58464905E-38
  0.177499995      -2.08495695E-38
  0.178749993      -8.23669168E-38
  0.180000007      -1.53697274E-37
  0.181250006      -2.26019846E-37
  0.182500005      -2.86804743E-37
  0.183750004      -3.20676369E-37
  0.185000002      -3.11176664E-37
  0.186250001      -2.43439802E-37
  0.187500000      -1.07608770E-37
  0.188749999       9.73947050E-38
  0.189999998       3.60358451E-37
  0.191249996       6.55318684E-37
  0.192499995       9.41026670E-37
  0.193749994       1.16315458E-36
  0.194999993       1.25979342E-36
  0.196250007       1.17033372E-36
  0.197500005       8.47170973E-37
  0.198750004       2.68923682E-37
  0.200000003      -5.46893877E-37
  0.201250002      -1.53437671E-36
  0.202500001      -2.57577294E-36
  0.203749999      -3.50665089E-36
  0.204999998      -4.13138374E-36
  0.206249997      -4.24914375E-36
  0.207499996      -3.68859459E-36
  0.208749995      -2.34723618E-36
  0.209999993      -2.29281015E-37
  0.211250007       2.52550466E-36
  0.212500006       5.62989079E-36
  0.213750005       8.66094753E-36
  0.215000004       1.10994074E-35
  0.216250002       1.23962021E-35
  0.217500001       1.20603898E-35
  0.218750000       9.75712830E-36
  0.219999999       5.39973705E-36
  0.221249998      -7.82603982E-37
  0.222499996      -8.21927691E-36
  0.223749995      -1.60280635E-35
  0.224999994      -2.31054837E-35
  0.226249993      -2.82717039E-35
  0.227500007      -3.04519905E-35
  0.228750005      -2.88659254E-35
  0.230000004      -2.31889794E-35
  0.231250003      -1.36507797E-35
  0.232500002      -1.04226643E-36
  0.233750001       1.33803141E-35
  0.234999999       2.80848330E-35
  0.236249998       4.15124366E-35
  0.237499997       5.23322222E-35
  0.238749996       5.96359680E-35
  0.239999995       6.30111464E-35
  0.241249993       6.24518739E-35
  0.242500007       5.81061781E-35
  0.243750006       4.99086260E-35
  0.245000005       3.72001517E-35
  0.246250004       1.84775960E-35
  0.247500002      -8.57013872E-36
  0.248750001      -4.66082018E-35
  0.250000000      -9.77254805E-35
  0.251249999      -1.62086000E-34
  0.252499998      -2.36366407E-34
  0.253749996      -3.12333073E-34
  0.254999995      -3.76026041E-34
  0.256249994      -4.08055966E-34
  0.257499993      -3.85445883E-34
  0.258749992      -2.85241418E-34
  0.259999990      -8.97718320E-35
  0.261249989       2.06992869E-34
  0.262499988       5.93011094E-34
  0.263749987       1.03308551E-33
  0.264999986       1.46676266E-33
  0.266250014       1.81077889E-33
  0.267500013       1.96717308E-33
  0.268750012       1.83735222E-33
  0.270000011       1.34123593E-33
  0.271250010       4.39258729E-34
  0.272500008      -8.46293209E-34
  0.273750007      -2.41509318E-33
  0.275000006      -4.08254735E-33
  0.276250005      -5.58778476E-33
  0.277500004      -6.61853719E-33
  0.278750002      -6.85302333E-33
  0.280000001      -6.01565001E-33
  0.281250000      -3.93980634E-33
  0.282499999      -6.27840073E-34
  0.283749998       3.70373731E-33
  0.284999996       8.60601969E-33
  0.286249995       1.34166106E-32
  0.287499994       1.73213030E-32
  0.288749993       1.94575554E-32
  0.289999992       1.90507447E-32
  0.291249990       1.55660857E-32
  0.292499989       8.85246722E-33
  0.293749988      -7.49181488E-34
  0.294999987      -1.23595590E-32
  0.296249986      -2.45973280E-32
  0.297500014      -3.57077450E-32
  0.298750013      -4.37782955E-32
  0.300000012      -4.70193391E-32
  0.301250011      -4.40721103E-32
  0.302500010      -3.42950947E-32
  0.303750008      -1.79758756E-32
  0.305000007       3.57929471E-33
  0.306250006       2.81106661E-32
  0.307500005       5.26337411E-32
  0.308750004       7.38116060E-32
  0.310000002       8.84217606E-32
  0.311250001       9.38450625E-32
  0.312500000       8.84922844E-32
  0.313749999       7.20872381E-32
  0.314999998       4.57460554E-32
  0.316249996       1.18279542E-32
  0.317499995      -2.64216100E-32
  0.318749994      -6.53679478E-32
  0.319999993      -1.01519736E-31
  0.321249992      -1.31975255E-31
  0.322499990      -1.54669842E-31
  0.323749989      -1.68352361E-31
  0.324999988      -1.72283732E-31
  0.326249987      -1.65732020E-31
  0.327499986      -1.47417089E-31
  0.328750014      -1.15114692E-31
  0.330000013      -6.56436953E-32
  0.331250012       4.58309084E-33
  0.332500011       9.83685176E-32
  0.333750010       2.15982934E-31
  0.335000008       3.53126567E-31
  0.336250007       4.99048792E-31
  0.337500006       6.35396450E-31
  0.338750005       7.36389706E-31
  0.340000004       7.70820076E-31
  0.341250002       7.06112074E-31
  0.342500001       5.14305956E-31
  0.343750000       1.79350698E-31
  0.344999999      -2.95380783E-31
  0.346249998      -8.80825095E-31
  0.347499996      -1.51886725E-30
  0.348749995      -2.12343839E-30
  0.349999994      -2.58718200E-30
  0.351249993      -2.79401315E-30
  0.352499992      -2.63684730E-30
  0.353749990      -2.03860381E-30
  0.354999989      -9.73491195E-31
  0.356249988       5.15203610E-31
  0.357499987       2.30486268E-30
  0.358749986       4.19442565E-30
  0.360000014       5.91882659E-30
  0.361250013       7.17749553E-30
  0.362500012       7.67504524E-30
  0.363750011       7.16974818E-30
  0.365000010       5.52314541E-30
  0.366250008       2.74267245E-30
  0.367500007      -9.91159439E-31
  0.368750006      -5.32035251E-30
  0.370000005      -9.73251846E-30
  0.371250004      -1.36123540E-29
  0.372500002      -1.63177243E-29
  0.373750001      -1.72718556E-29
  0.375000000      -1.60592013E-29
  0.376249999      -1.25101375E-29
  0.377499998      -6.75950704E-30
  0.378749996       7.33565510E-31
  0.379999995       9.21227287E-30
  0.381249994       1.76960597E-29
  0.382499993       2.50950703E-29
  0.383749992       3.03509557E-29
  0.384999990       3.25842520E-29
  0.386249989       3.12258936E-29
  0.387499988       2.61114663E-29
  0.388749987       1.75218278E-29
  0.389999986       6.16196320E-30
  0.391250014      -6.91966693E-30
  0.392500013      -2.04585068E-29
  0.393750012      -3.31266059E-29
  0.395000011      -4.36843643E-29
  0.396250010      -5.11053455E-29
  0.397500008      -5.46540821E-29
  0.398750007      -5.39073690E-29
  0.400000006      -4.87231899E-29
  0.401250005      -3.91749227E-29
  0.402500004      -2.54790631E-29
  0.403750002      -7.94892150E-30
  0.405000001       1.29972300E-29
  0.406250000       3.67577964E-29
  0.407499999       6.24036450E-29
  0.408749998       8.84963425E-29
  0.409999996       1.12920077E-28
  0.411249995       1.32794266E-28
  0.412499994       1.44536974E-28
  0.413749993       1.44136453E-28
  0.414999992       1.27656824E-28
  0.416249990       9.19581775E-29
  0.417499989       3.55565909E-29
  0.418749988      -4.05048646E-29
  0.419999987      -1.31944341E-28
  0.421249986      -2.30877087E-28
  0.422500014      -3.25971732E-28
  0.423750013      -4.03246878E-28
  0.425000012      -4.47538741E-28
  0.426250011      -4.44555091E-28
  0.427500010      -3.83305391E-28
  0.428750008      -2.58582288E-28
  0.430000007      -7.30902150E-29
  0.431250006       1.61207571E-28
  0.432500005       4.22904749E-28
  0.433750004       6.82390202E-28
  0.435000002       9.04580021E-28
  0.436250001       1.05298024E-27
  0.437500000       1.09467547E-27
  0.438749999       1.00561902E-27
  0.439999998       7.75461007E-28
  0.441249996       4.11107706E-28
  0.442499995      -6.17025764E-29
  0.443749994      -5.99307413E-28
  0.444999993      -1.14368538E-27
  0.446249992      -1.62846063E-27
  0.447499990      -1.98673194E-27
  0.448749989      -2.15976673E-27
  0.449999988      -2.10538733E-27
  0.451249987      -1.80482323E-27
  0.452499986      -1.26695029E-27
  0.453750014      -5.29167115E-28
  0.455000013       3.45373358E-28
  0.456250012       1.27391667E-27
  0.457500011       2.16286516E-27
  0.458750010       2.91795412E-27
  0.460000008       3.45444386E-27
  0.461250007       3.70594373E-27
  0.462500006       3.63075658E-27
  0.463750005       3.21509564E-27
  0.465000004       2.47310590E-27
  0.466250002       1.44420999E-27
  0.467500001       1.88745949E-28
  0.468750000      -1.21690702E-27
  0.469999999      -2.68460151E-27
  0.471249998      -4.11736089E-27
  0.472499996      -5.41087784E-27
  0.473749995      -6.45419684E-27
  0.474999994      -7.13087888E-27
  0.476249993      -7.32235946E-27
  0.477499992      -6.91519552E-27
  0.478749990      -5.81340220E-27
  0.479999989      -3.95601495E-27
  0.481249988      -1.33860567E-27
  0.482499987       1.96410111E-27
  0.483749986       5.77879363E-27
  0.485000014       9.82249848E-27
  0.486250013       1.37051008E-26
  0.487500012       1.69497042E-26
  0.488750011       1.90329410E-26
  0.490000010       1.94443104E-26
  0.491250008       1.77599460E-26
  0.492500007       1.37225621E-26
  0.493750006       7.31632051E-27
  0.495000005      -1.17632980E-27
  0.496250004      -1.11486106E-26
  0.497500002      -2.16845398E-26
  0.498750001      -3.16210457E-26
  0.500000000      -3.96566139E-26
  0.501250029      -4.44986514E-26
  0.502499998      -4.50346239E-26
  0.503750026      -4.05060168E-26
  0.504999995      -3.06607492E-26
  0.506250024      -1.58594199E-26
  0.507499993       2.88558039E-27
  0.508750021       2.39518509E-26
  0.509999990       4.52332874E-26
  0.511250019       6.43427803E-26
  0.512499988       7.88715644E-26
  0.513750017       8.66757653E-26
  0.514999986       8.61545748E-26
  0.516250014       7.64832633E-26
  0.517499983       5.77682718E-26
  0.518750012       3.11007303E-26
  0.519999981      -1.50224153E-27
  0.521250010      -3.72643131E-26
  0.522499979      -7.29061119E-26
  0.523750007      -1.04960248E-25
  0.524999976      -1.30107482E-25
  0.526250005      -1.45495139E-25
  0.527499974      -1.49003339E-25
  0.528750002      -1.39434678E-25
  0.529999971      -1.16615681E-25
  0.531250000      -8.14121094E-26
  0.532500029      -3.56716769E-26
  0.533749998       1.78856153E-26
  0.535000026       7.58079984E-26
  0.536249995       1.34067059E-25
  0.537500024       1.88221041E-25
  0.538749993       2.33592092E-25
  0.540000021       2.65473881E-25
  0.541249990       2.79392173E-25
  0.542500019       2.71438680E-25
  0.543749988       2.38687148E-25
  0.545000017       1.79679526E-25
  0.546249986       9.49431447E-26
  0.547500014      -1.25292798E-26
  0.548749983      -1.36929009E-25
  0.550000012      -2.69515216E-25
  0.551249981      -3.98833948E-25
  0.552500010      -5.11347084E-25
  0.553749979      -5.92499473E-25
  0.555000007      -6.28188181E-25
  0.556249976      -6.06524089E-25
  0.557500005      -5.19703537E-25
  0.558749974      -3.65750330E-25
  0.560000002      -1.49857244E-25
  0.561249971       1.14936602E-25
  0.562500000       4.07947609E-25
  0.563750029       7.02052433E-25
  0.564999998       9.65896083E-25
  0.566250026       1.16696075E-24
  0.567499995       1.27521259E-24
  0.568750024       1.26692462E-24
  0.569999993       1.12820303E-24
  0.571250021       8.57730533E-25
  0.572499990       4.68295296E-25
  0.573750019      -1.31999880E-26
  0.574999988      -5.47381017E-25
  0.576250017      -1.08561943E-24
  0.577499986      -1.57453708E-24
  0.578750014      -1.96132751E-24
  0.579999983      -2.19930180E-24
  0.581250012      -2.25301712E-24
  0.582499981      -2.10239300E-24
  0.583750010      -1.74533957E-24
  0.584999979      -1.19861350E-24
  0.586250007      -4.96845848E-25
  0.587499976       3.10095207E-25
  0.588750005       1.16105130E-24
  0.589999974       1.98835527E-24
  0.591250002       2.72293268E-24
  0.592499971       3.29925651E-24
  0.593750000       3.65980736E-24
  0.595000029       3.75884767E-24
  0.596249998       3.56547774E-24
  0.597500026       3.06606864E-24
  0.598749995       2.26620549E-24
  0.600000024       1.19224503E-24
  0.601249993      -1.07539663E-25
  0.602500021      -1.56244236E-24
  0.603749990      -3.07984807E-24
  0.605000019      -4.54737094E-24
  0.606249988      -5.83723070E-24
  0.607500017      -6.81339006E-24
  0.608749986      -7.34170046E-24
  0.610000014      -7.30285143E-24
  0.611249983      -6.60734827E-24
  0.612500012      -5.21113586E-24
  0.613749981      -3.12994724E-24
  0.615000010      -4.50084688E-25
  0.616249979       2.66669124E-24
  0.617500007       5.98620511E-24
  0.618749976       9.21416674E-24
  0.620000005       1.20180032E-23
  0.621249974       1.40572063E-23
  0.622500002       1.50197980E-23
  0.623749971       1.46612623E-23
  0.625000000       1.28414115E-23
  0.626250029       9.55422101E-24
  0.627499998       4.94596973E-24
  0.628750026      -6.82031537E-25
  0.629999995      -6.88826243E-24
  0.631250024      -1.31234490E-23
  0.632499993      -1.87784741E-23
  0.633750021      -2.32434111E-23
  0.634999990      -2.59715982E-23
  0.636250019      -2.65416259E-23
  0.637499988      -2.47099209E-23
  0.638750017      -2.04474656E-23
  0.639999986      -1.39557746E-23
  0.641250014      -5.65969874E-24
  0.642499983       3.82272134E-24
  0.643750012       1.37303907E-23
  0.644999981       2.32240461E-23
  0.646250010       3.14590755E-23
  0.647499979       3.76588407E-23
  0.648750007       4.11813728E-23
  0.649999976       4.15736734E-23
  0.651250005       3.86096579E-23
  0.652499974       3.23099819E-23
  0.653750002       2.29441299E-23
  0.654999971       1.10166713E-23
  0.656250000      -2.75942874E-24
  0.657500029      -1.74994987E-23
  0.658749998      -3.21914793E-23
  0.660000026      -4.57465614E-23
  0.661249995      -5.70559364E-23
  0.662500024      -6.50542097E-23
  0.663749993      -6.87899584E-23
  0.665000021      -6.75030801E-23
  0.666249990      -6.07063681E-23
  0.667500019      -4.82662999E-23
  0.668749988      -3.04748454E-23
  0.670000017      -8.10157152E-24
  0.671249986       1.75861282E-23
  0.672500014       4.48464806E-23
  0.673749983       7.15397381E-23
  0.675000012       9.52618458E-23
  0.676249981       1.13532710E-22
  0.677500010       1.24028170E-22
  0.678749979       1.24836544E-22
  0.680000007       1.14713035E-22
  0.681249976       9.33011857E-23
  0.682500005       6.12891407E-23
  0.683749974       2.04723036E-23
  0.685000002      -2.62980446E-23
  0.686249971      -7.52887144E-23
  0.687500000      -1.22174877E-22
  0.688750029      -1.62424984E-22
  0.689999998      -1.91744583E-22
  0.691250026      -2.06532494E-22
  0.692499995      -2.04297620E-22
  0.693750024      -1.83985776E-22
  0.694999993      -1.46174184E-22
  0.696250021      -9.31045700E-23
  0.697499990      -2.85450265E-23
  0.698750019       4.25094612E-23
  0.699999988       1.14268143E-22
  0.701250017       1.80661618E-22
  0.702499986       2.35889580E-22
  0.703750014       2.74940669E-22
  0.704999983       2.94031330E-22
  0.706250012       2.90922511E-22
  0.707499981       2.65089248E-22
  0.708750010       2.17737676E-22
  0.709999979       1.51681948E-22
  0.711250007       7.11075181E-23
  0.712499976      -1.87434140E-23
  0.713750005      -1.11927422E-22
  0.714999974      -2.02163669E-22
  0.716250002      -2.83183344E-22
  0.717499971      -3.49053684E-22
  0.718750000      -3.94477507E-22
  0.720000029      -4.15076167E-22
  0.721249998      -4.07666201E-22
  0.722500026      -3.70534884E-22
  0.723749995      -3.03708344E-22
  0.725000024      -2.09190791E-22
  0.726249993      -9.11377315E-23
  0.727500021       4.40867097E-23
  0.728749990       1.88022220E-22
  0.730000019       3.30442246E-22
  0.731249988       4.59930394E-22
  0.732500017       5.64701825E-22
  0.733749986       6.33630447E-22
  0.735000014       6.57400176E-22
  0.736249983       6.29663271E-22
  0.737500012       5.48061732E-22
  0.738749981       4.14960526E-22
  0.740000010       2.37755987E-22
  0.741249979       2.86590611E-23
  0.742500007      -1.96088342E-22
  0.743749976      -4.17534308E-22
  0.745000005      -6.15769424E-22
  0.746249974      -7.71935308E-22
  0.747500002      -8.70262263E-22
  0.748749971      -8.99885164E-22
  0.750000000      -8.56196961E-22
  0.751250029      -7.41543589E-22
  0.752499998      -5.65141669E-22
  0.753750026      -3.42197334E-22
  0.754999995      -9.23120109E-23
  0.756250024       1.62638834E-22
  0.757499993       4.00891034E-22
  0.758750021       6.03134624E-22
  0.759999990       7.54508827E-22
  0.761250019       8.45988319E-22
  0.762499988       8.74984725E-22
  0.763750017       8.45099342E-22
  0.764999986       7.65086076E-22
  0.766250014       6.47200369E-22
  0.767499983       5.05198186E-22
  0.768750012       3.52299525E-22
  0.769999981       1.99431219E-22
  0.771250010       5.40144863E-23
  0.772499979      -8.05290290E-23
  0.773750007      -2.04497738E-22
  0.774999976      -3.20930629E-22
  0.776250005      -4.34116846E-22
  0.777499974      -5.47867408E-22
  0.778750002      -6.63861767E-22
  0.779999971      -7.80367360E-22
  0.781250000      -8.91568929E-22
  0.782500029      -9.87641232E-22
  0.783749998      -1.05557647E-21
  0.785000026      -1.08065472E-21
  0.786249995      -1.04834298E-21
  0.787500024      -9.46346521E-22
  0.788749993      -7.66519304E-22
  0.790000021      -5.06378322E-22
  0.791249990      -1.70039776E-22
  0.792500019       2.31500055E-22
  0.793749988       6.80712240E-22
  0.795000017       1.15439406E-21
  0.796249986       1.62487020E-21
  0.797500014       2.06135973E-21
  0.798749983       2.43137240E-21
  0.800000012       2.70207110E-21
  0.801249981       2.84163400E-21
  0.802500010       2.82072648E-21
  0.803749979       2.61424576E-21
  0.805000007       2.20349142E-21
  0.806249976       1.57883677E-21
  0.807500005       7.42842723E-22
  0.808749974      -2.86432113E-22
  0.810000002      -1.47236786E-21
  0.811249971      -2.75757459E-21
  0.812500000      -4.06324688E-21
  0.813750029      -5.29077483E-21
  0.814999998      -6.32615535E-21
  0.816250026      -7.04747057E-21
  0.817499995      -7.33529227E-21
  0.818750024      -7.08539971E-21
  0.819999993      -6.22272829E-21
  0.821250021      -4.71505308E-21
  0.822499990      -2.58463669E-21
  0.823750019       8.39727414E-23
  0.824999988       3.14162813E-21
  0.826250017       6.37894345E-21
  0.827499986       9.53785937E-21
  0.828750014       1.23301214E-20
  0.829999983       1.44615049E-20
  0.831250012       1.56597940E-20
  0.832499981       1.57038882E-20
  0.833750010       1.44509842E-20
  0.834999979       1.18587577E-20
  0.836250007       7.99979699E-21
  0.837499976       3.06615214E-21
  0.838750005      -2.63716670E-21
  0.839999974      -8.70982492E-21
  0.841250002      -1.46838614E-20
  0.842499971      -2.00593286E-20
  0.843750000      -2.43449174E-20
  0.845000029      -2.71000638E-20
  0.846249998      -2.79748800E-20
  0.847500026      -2.67444230E-20
  0.848749995      -2.33343434E-20
  0.850000024      -1.78356861E-20
  0.851249993      -1.05075542E-20
  0.852500021      -1.76723220E-21
  0.853749990       7.83166607E-21
  0.855000019       1.76317538E-20
  0.856249988       2.69132017E-20
  0.857500017       3.49414985E-20
  0.858749986       4.10189108E-20
  0.860000014       4.45367677E-20
  0.861249983       4.50255022E-20
  0.862500012       4.21993007E-20
  0.863749981       3.59921342E-20
  0.865000010       2.65820468E-20
  0.866249979       1.44007233E-20
  0.867500007       1.25856522E-22
  0.868749976      -1.53454508E-20
  0.870000005      -3.09428848E-20