 -0.200000003       0.00000000    
 -0.198750004       0.00000000    
 -0.197500005       0.00000000    
 -0.196250007       0.00000000    
 -0.194999993       0.00000000    
 -0.193749994       0.00000000    
 -0.192499995       0.00000000    
 -0.191249996       0.00000000    
 -0.189999998       0.00000000    
 -0.188749999       3.20167697E-35
 -0.187500000       5.32522083E-34
 -0.186250001       4.57637546E-33
 -0.185000002       2.69781008E-32
 -0.183750004       1.22176099E-31
 -0.182500005       4.51109922E-31
 -0.181250006       1.40623543E-30
 -0.180000007       3.77863618E-30
 -0.178749993       8.84561267E-30
 -0.177499995       1.80555646E-29
 -0.176249996       3.17261389E-29
 -0.174999997       4.60269722E-29
 -0.173749998       4.78697591E-29
 -0.172499999       8.73966847E-30
 -0.171250001      -1.18490156E-28
 -0.170000002      -3.91096475E-28
 -0.168750003      -8.42748040E-28
 -0.167500004      -1.40879484E-27
 -0.166250005      -1.80169668E-27
 -0.165000007      -1.35061394E-27
 -0.163749993       1.13538934E-27
 -0.162499994       7.35304645E-27
 -0.161249995       1.91343698E-26
 -0.159999996       3.74602372E-26
 -0.158749998       6.06221671E-26
 -0.157499999       8.14697517E-26
 -0.156250000       8.40720744E-26
 -0.155000001       4.07585479E-26
 -0.153750002      -8.86701906E-26
 -0.152500004      -3.52950322E-25
 -0.151250005      -7.97512096E-25
 -0.150000006      -1.44212204E-24
 -0.148750007      -2.24717323E-24
 -0.147499993      -3.07146681E-24
 -0.146249995      -3.62992176E-24
 -0.144999996      -3.46652579E-24
 -0.143749997      -1.96448454E-24
 -0.142499998       1.58058153E-24
 -0.141249999       7.80065185E-24
 -0.140000001       1.69962622E-23
 -0.138750002       2.87894125E-23
 -0.137500003       4.17346641E-23
 -0.136250004       5.29782449E-23
 -0.135000005       5.80987285E-23
 -0.133750007       5.12935063E-23
 -0.132499993       2.60764551E-23
 -0.131249994      -2.33936370E-23
 -0.129999995      -1.00339794E-22
 -0.128749996      -2.02902825E-22
 -0.127499998      -3.21558814E-22
 -0.126249999      -4.37024903E-22
 -0.125000000      -5.19457863E-22
 -0.123750001      -5.29840484E-22
 -0.122500002      -4.24357740E-22
 -0.121250004      -1.62227402E-22
 -0.119999997       2.83164891E-22
 -0.118749999       9.10841268E-22
 -0.117500000       1.67855192E-21
 -0.116250001       2.49186887E-21
 -0.115000002       3.19981007E-21
 -0.113750003       3.60093168E-21
 -0.112499997       3.46318631E-21
 -0.111249998       2.55920432E-21
 -0.109999999       7.15986818E-22
 -0.108750001      -2.12553166E-21
 -0.107500002      -5.84951029E-21
 -0.106250003      -1.01149091E-20
 -0.104999997      -1.43304259E-20
 -0.103749998      -1.76695505E-20
 -0.102499999      -1.91380416E-20
 -0.101250000      -1.77000608E-20
 -0.100000001      -1.24598474E-20
  -9.87500027E-02  -2.88370792E-21
  -9.74999964E-02   1.09659859E-20
  -9.62499976E-02   2.82251344E-20
  -9.49999988E-02   4.70990631E-20
  -9.37500000E-02   6.48604726E-20
  -9.25000012E-02   7.80166962E-20
  -9.12500024E-02   8.26709766E-20
  -9.00000036E-02   7.50745634E-20
  -8.87499973E-02   5.23307801E-20
  -8.74999985E-02   1.31728626E-20
  -8.62499997E-02  -4.12991990E-20
  -8.50000009E-02  -1.07064158E-19
  -8.37500021E-02  -1.76957779E-19
  -8.25000033E-02  -2.40919068E-19
  -8.12499970E-02  -2.86797038E-19
  -7.99999982E-02  -3.01739797E-19
  -7.87499994E-02  -2.74094594E-19
  -7.75000006E-02  -1.95642303E-19
  -7.62500018E-02  -6.38864028E-20
  -7.50000030E-02   1.15965035E-19
  -7.37499967E-02   3.29728151E-19
  -7.24999979E-02   5.54072458E-19
  -7.12499991E-02   7.57757877E-19
  -7.00000003E-02   9.04434319E-19
  -6.87500015E-02   9.56947363E-19
  -6.75000027E-02   8.82836736E-19
  -6.62499964E-02   6.60454502E-19
  -6.49999976E-02   2.84898710E-19
  -6.37499988E-02  -2.27197408E-19
  -6.25000000E-02  -8.35017115E-19
  -6.12500012E-02  -1.47394176E-18
  -5.99999987E-02  -2.05957984E-18
  -5.87499999E-02  -2.49564051E-18
  -5.75000010E-02  -2.68530579E-18
  -5.62499985E-02  -2.54516030E-18
  -5.49999997E-02  -2.02015786E-18
  -5.37500009E-02  -1.09764313E-18
  -5.24999984E-02   1.81815397E-19
  -5.12499996E-02   1.71899515E-18
  -5.00000007E-02   3.35785553E-18
  -4.87499982E-02   4.89580329E-18
  -4.74999994E-02   6.10255806E-18
  -4.62500006E-02   6.74658351E-18
  -4.50000018E-02   6.62678501E-18
  -4.37499993E-02   5.60599781E-18
  -4.25000004E-02   3.64193313E-18
  -4.12500016E-02   8.10808589E-19
  -3.99999991E-02  -2.68089174E-18
  -3.87500003E-02  -6.50024499E-18
  -3.75000015E-02  -1.02094908E-17
  -3.62499990E-02  -1.33055244E-17
  -3.50000001E-02  -1.52749670E-17
  -3.37500013E-02  -1.56600245E-17
  -3.24999988E-02  -1.41280844E-17
  -3.12500000E-02  -1.05364107E-17
  -2.99999993E-02  -4.98256254E-18
  -2.87500005E-02   2.16836505E-18
  -2.74999999E-02   1.02868884E-17
  -2.62499992E-02   1.85169658E-17
  -2.50000004E-02   2.58488978E-17
  -2.37499997E-02   3.12231664E-17
  -2.25000009E-02   3.36564670E-17
  -2.12500002E-02   3.23770635E-17
  -1.99999996E-02   2.69535942E-17
  -1.87500007E-02   1.74000056E-17
  -1.75000001E-02   4.24003931E-18
  -1.62499994E-02  -1.14825474E-17
  -1.49999997E-02  -2.82567941E-17
  -1.37499999E-02  -4.42224553E-17
  -1.25000002E-02  -5.73471944E-17
  -1.12500004E-02  -6.56491231E-17
  -9.99999978E-03  -6.74433573E-17
  -8.75000004E-03  -6.15854958E-17
  -7.49999983E-03  -4.76821051E-17
  -6.25000009E-03  -2.62383146E-17
  -4.99999989E-03   1.28307686E-18
  -3.74999992E-03   3.25092238E-17
  -2.49999994E-03   6.43190035E-17
  -1.24999997E-03   9.31135974E-17
   0.00000000       1.15176840E-16
   1.24999997E-03   1.27093442E-16
   2.49999994E-03   1.26182697E-16
   3.74999992E-03   1.10898543E-16
   4.99999989E-03   8.11453792E-17
   6.25000009E-03   3.84632202E-17
   7.49999983E-03  -1.39539381E-17
   8.75000004E-03  -7.14274099E-17
   9.99999978E-03  -1.28151969E-16
   1.12500004E-02  -1.77722388E-16
   1.25000002E-02  -2.13786576E-16
   1.37499999E-02  -2.30764306E-16
   1.49999997E-02  -2.24557090E-16
   1.62499994E-02  -1.93167981E-16
   1.75000001E-02  -1.37152210E-16
   1.87500007E-02  -5.98305097E-17
   1.99999996E-02   3.27825640E-17
   2.12500002E-02   1.32356032E-16
   2.25000009E-02   2.28914016E-16
   2.37499997E-02   3.11755717E-16
   2.50000004E-02   3.70546421E-16
   2.62499992E-02   3.96475794E-16
   2.74999999E-02   3.83362453E-16
   2.87500005E-02   3.28578956E-16
   2.99999993E-02   2.33679476E-16
   3.12500000E-02   1.04634536E-16
   3.24999988E-02  -4.83884776E-17
   3.37500013E-02  -2.11715938E-16
   3.50000001E-02  -3.69296968E-16
   3.62499990E-02  -5.04187574E-16
   3.75000015E-02  -6.00261174E-16
   3.87500003E-02  -6.43981944E-16
   3.99999991E-02  -6.26055657E-16
   4.12500016E-02  -5.42772730E-16
   4.25000004E-02  -3.96874270E-16
   4.37499993E-02  -1.97810516E-16
   4.50000018E-02   3.86847259E-17
   4.62500006E-02   2.91713330E-16
   4.74999994E-02   5.36961820E-16
   4.87499982E-02   7.48944838E-16
   5.00000007E-02   9.03545291E-16
   5.12499996E-02   9.80606655E-16
   5.24999984E-02   9.66310221E-16
   5.37500009E-02   8.55071555E-16
   5.49999997E-02   6.50725227E-16
   5.62499985E-02   3.66820853E-16
   5.75000010E-02   2.59383425E-17
   5.87499999E-02  -3.41976159E-16
   5.99999987E-02  -7.02148120E-16
   6.12500012E-02  -1.01818305E-15
   6.25000000E-02  -1.25565837E-15
   6.37499988E-02  -1.38575353E-15
   6.49999976E-02  -1.38854503E-15
   6.62499964E-02  -1.25560585E-15
   6.75000027E-02  -9.91597119E-16
   6.87500015E-02  -6.14623147E-16
   7.00000003E-02  -1.55237356E-16
   7.12499991E-02   3.45882331E-16
   7.24999979E-02   8.41432365E-16
   7.37499967E-02   1.28186843E-15
   7.50000030E-02   1.62028149E-15
   7.62500018E-02   1.81729394E-15
   7.75000006E-02   1.84547939E-15
   7.87499994E-02   1.69282499E-15
   7.99999982E-02   1.36482959E-15
   8.12499970E-02   8.84946565E-16
   8.25000033E-02   2.93230842E-16
   8.37500021E-02  -3.56772527E-16
   8.50000009E-02  -1.00268118E-15
   8.62499997E-02  -1.57908403E-15
   8.74999985E-02  -2.02398290E-15
   8.87499973E-02  -2.28524915E-15
   9.00000036E-02  -2.32644862E-15
   9.12500024E-02  -2.13140933E-15
   9.25000012E-02  -1.70700729E-15
   9.37500000E-02  -1.08379390E-15
   9.49999988E-02  -3.14282390E-16
   9.62499976E-02   5.31061653E-16
   9.74999964E-02   1.36985196E-15
   9.87500027E-02   2.11534705E-15
  0.100000001       2.68488523E-15
  0.101250000       3.00840353E-15
  0.102499999       3.03620972E-15
  0.103749998       2.74520244E-15
  0.104999997       2.14285021E-15
  0.106250003       1.26841733E-15
  0.107500002       1.91164523E-16
  0.108750001      -9.94472055E-16
  0.109999999      -2.17643125E-15
  0.111249998      -3.23474386E-15
  0.112499997      -4.05261770E-15
  0.113750003      -4.52792770E-15
  0.115000002      -4.58405718E-15
  0.116250001      -4.17904584E-15
  0.117500000      -3.31209428E-15
  0.118749999      -2.02667519E-15
  0.119999997      -4.09756318E-16
  0.121250004       1.41302619E-15
  0.122500002       3.28606517E-15
  0.123750001       5.03581162E-15
  0.125000000       6.48527981E-15
  0.126249999       7.46990479E-15
  0.127499998       7.85344978E-15
  0.128749996       7.54257937E-15
  0.129999995       6.49873577E-15
  0.131249994       4.74610941E-15
  0.132499993       2.37474326E-15
  0.133750007      -4.61852444E-16
  0.135000005      -3.55477705E-15
  0.136250004      -6.65325364E-15
  0.137500003      -9.48285656E-15
  0.138750002      -1.17672917E-14
  0.140000001      -1.32521862E-14
  0.141249999      -1.37290471E-14
  0.142499998      -1.30574076E-14
  0.143749997      -1.11831321E-14
  0.144999996      -8.15103024E-15
  0.146249995      -4.11019477E-15
  0.147499993       6.89026098E-16
  0.148750007       5.90695663E-15
  0.150000006       1.11352417E-14
  0.151250005       1.59253036E-14
  0.152500004       1.98229596E-14
  0.153750002       2.24068607E-14
  0.155000001       2.33278633E-14
  0.156250000       2.23460675E-14
  0.157499999       1.93621262E-14
  0.158749998       1.44395553E-14
  0.159999996       7.81520539E-15
  0.161249995      -1.04203138E-16
  0.162499994      -8.76061529E-15
  0.163749993      -1.74781759E-14
  0.165000007      -2.55103827E-14
  0.166250005      -3.20981204E-14
  0.167500004      -3.65345978E-14
  0.168750003      -3.82321839E-14
  0.170000002      -3.67854178E-14
  0.171250001      -3.20242558E-14
  0.172499999      -2.40517818E-14
  0.173749998      -1.32615171E-14
  0.174999997      -3.30690212E-16
  0.176249996       1.38123122E-14
  0.177499995       2.80459673E-14
  0.178749993       4.11364126E-14
  0.180000007       5.18359769E-14
  0.181250006       5.89923008E-14
  0.182500005       6.16592010E-14
  0.183750004       5.91994647E-14
  0.185000002       5.13694820E-14
  0.186250001       3.83763727E-14
  0.187500000       2.08998400E-14
  0.188749999       7.35882240E-17
  0.189999998      -2.25757286E-14
  0.191249996      -4.52302787E-14
  0.192499995      -6.59179132E-14
  0.193749994      -8.26747118E-14
  0.194999993      -9.37207194E-14
  0.196250007      -9.76339303E-14
  0.197500005      -9.35065420E-14
  0.198750004      -8.10677277E-14
  0.200000003      -6.07590557E-14
  0.201250002      -3.37516880E-14
  0.202500001      -1.89915354E-15
  0.203749999       3.23751171E-14
  0.204999998       6.62504312E-14
  0.206249997       9.67304917E-14
  0.207499996       1.20897785E-13
  0.208749995       1.36179764E-13
  0.209999993       1.40603742E-13
  0.211250007       1.33016197E-13
  0.212500006       1.13244124E-13
  0.213750005       8.21795838E-14
  0.215000004       4.17742758E-14
  0.216250002      -5.06152966E-15
  0.217500001      -5.46531543E-14
  0.218750000      -1.02837403E-13
  0.219999999      -1.45300669E-13
  0.221249998      -1.77952691E-13
  0.222499996      -1.97304480E-13
  0.223749995      -2.00816590E-13
  0.224999994      -1.87184537E-13
  0.226249993      -1.56531648E-13
  0.227500007      -1.10486713E-13
  0.228750005      -5.21324384E-14
  0.230000004       1.41780093E-14
  0.231250003       8.31274069E-14
  0.232500002       1.48843326E-13
  0.233750001       2.05378493E-13
  0.234999999       2.47223628E-13
  0.236249998       2.69808861E-13
  0.237499997       2.69948777E-13
  0.238749996       2.46188676E-13
  0.239999995       1.99017127E-13
  0.241249993       1.30919364E-13
  0.242500007       4.62602707E-14
  0.243750006      -4.90005172E-14
  0.245000005      -1.47743065E-13
  0.246250004      -2.42239117E-13
  0.247500002      -3.24777558E-13
  0.248750001      -3.88311562E-13
  0.250000000      -4.27071058E-13
  0.251249999      -4.37085914E-13
  0.252499998      -4.16570993E-13
  0.253749996      -3.66135019E-13
  0.254999995      -2.88789365E-13
  0.256249994      -1.89750329E-13
  0.257499993      -7.60460352E-14
  0.258749992       4.40429452E-14
  0.259999990       1.61664871E-13
  0.261249989       2.68143906E-13
  0.262499988       3.55729660E-13
  0.263749987       4.18284331E-13
  0.264999986       4.51847191E-13
  0.266250014       4.55025015E-13
  0.267500013       4.29173082E-13
  0.268750012       3.78347418E-13
  0.270000011       3.09030660E-13
  0.271250010       2.29652885E-13
  0.272500008       1.49947573E-13
  0.273750007       8.01974928E-14
  0.275000006       3.04365433E-14
  0.276250005       9.67659672E-15
  0.277500004       2.52277938E-14
  0.278750002       8.21725703E-14
  0.280000001       1.83040337E-13
  0.281250000       3.27712195E-13
  0.282499999       5.13565102E-13
  0.283749998       7.35843840E-13
  0.284999996       9.88228705E-13
  0.286249995       1.26355046E-12
  0.287499994       1.55459185E-12
  0.288749993       1.85490534E-12
  0.289999992       2.15958132E-12
  0.291249990       2.46589815E-12
  0.292499989       2.77380788E-12
  0.293749988       3.08621423E-12
  0.294999987       3.40902935E-12
  0.296249986       3.75101035E-12
  0.297500014       4.12339650E-12
  0.298750013       4.53939013E-12
  0.300000012       5.01352822E-12
  0.301250011       5.56101476E-12
  0.302500010       6.19706933E-12
  0.303750008       6.93635861E-12
  0.305000007       7.79256260E-12
  0.306250006       8.77811192E-12
  0.307500005       9.90412526E-12
  0.308750004       1.11805417E-11
  0.310000002       1.26164487E-11
  0.311250001       1.42205614E-11
  0.312500000       1.60018249E-11
  0.313749999       1.79700820E-11
  0.314999998       2.01367568E-11
  0.316249996       2.25154912E-11
  0.317499995       2.51227095E-11
  0.318749994       2.79780574E-11
  0.319999993       3.11047021E-11
  0.321249992       3.45294730E-11
  0.322499990       3.82828942E-11
  0.323749989       4.23990600E-11
  0.324999988       4.69154472E-11
  0.326249987       5.18726589E-11
  0.327499986       5.73141812E-11
  0.328750014       6.32861610E-11
  0.330000013       6.98372471E-11
  0.331250012       7.70185235E-11
  0.332500011       8.48835655E-11
  0.333750010       9.34885988E-11
  0.335000008       1.02892785E-10
  0.336250007       1.13158566E-10
  0.337500006       1.24352140E-10
  0.338750005       1.36543957E-10
  0.340000004       1.49809165E-10
  0.341250002       1.64228200E-10
  0.342500001       1.79887161E-10
  0.343750000       1.96878305E-10
  0.344999999       2.15300319E-10
  0.346249998       2.35258674E-10
  0.347499996       2.56865806E-10
  0.348749995       2.80241302E-10
  0.349999994       3.05512005E-10
  0.351249993       3.32812167E-10
  0.352499992       3.62283481E-10
  0.353749990       3.94075134E-10
  0.354999989       4.28343944E-10
  0.356249988       4.65254446E-10
  0.357499987       5.04979003E-10
  0.358749986       5.47697943E-10
  0.360000014       5.93599669E-10
  0.361250013       6.42880693E-10
  0.362500012       6.95746016E-10
  0.363750011       7.52408968E-10
  0.365000010       8.13091372E-10
  0.366250008       8.78023820E-10
  0.367500007       9.47445455E-10
  0.368750006       1.02160436E-09
  0.370000005       1.10075737E-09
  0.371250004       1.18517030E-09
  0.372500002       1.27511790E-09
  0.373750001       1.37088396E-09
  0.375000000       1.47276136E-09
  0.376249999       1.58105185E-09
  0.377499998       1.69606629E-09
  0.378749996       1.81812421E-09
  0.379999995       1.94755412E-09
  0.381249994       2.08469242E-09
  0.382499993       2.22988383E-09
  0.383749992       2.38347986E-09
  0.384999990       2.54583887E-09
  0.386249989       2.71732525E-09
  0.387499988       2.89830848E-09
  0.388749987       3.08916204E-09
  0.389999986       3.29026228E-09
  0.391250014       3.50198825E-09
  0.392500013       3.72472009E-09
  0.393750012       3.95883859E-09
  0.395000011       4.20472457E-09
  0.396250010       4.46275772E-09
  0.397500008       4.73331641E-09
  0.398750007       5.01677766E-09
  0.400000006       5.31351674E-09
  0.401250005       5.62390534E-09
  0.402500004       5.94831295E-09
  0.403750002       6.28710550E-09
  0.405000001       6.64064403E-09
  0.406250000       7.00928426E-09
  0.407499999       7.39337658E-09
  0.408749998       7.79326292E-09
  0.409999996       8.20927504E-09
  0.411249995       8.64173622E-09
  0.412499994       9.09095554E-09
  0.413749993       9.55722701E-09
  0.414999992       1.00408295E-08
  0.416249990       1.05420241E-08
  0.417499989       1.10610534E-08
  0.418749988       1.15981402E-08
  0.419999987       1.21534862E-08
  0.421249986       1.27272735E-08
  0.422500014       1.33196636E-08
  0.423750013       1.39307952E-08
  0.425000012       1.45607881E-08
  0.426250011       1.52097428E-08
  0.427500010       1.58777400E-08
  0.428750008       1.65648402E-08
  0.430000007       1.72710877E-08
  0.431250006       1.79965056E-08
  0.432500005       1.87410976E-08
  0.433750004       1.95048457E-08
  0.435000002       2.02877146E-08
  0.436250001       2.10896403E-08
  0.437500000       2.19105409E-08
  0.438749999       2.27503030E-08
  0.439999998       2.36087914E-08
  0.441249996       2.44858391E-08
  0.442499995       2.53812527E-08
  0.443749994       2.62948099E-08
  0.444999993       2.72262621E-08
  0.446249992       2.81753305E-08
  0.447499990       2.91417148E-08
  0.448749989       3.01250900E-08
  0.449999988       3.11251149E-08
  0.451249987       3.21414220E-08
  0.452499986       3.31736345E-08
  0.453750014       3.42213653E-08
  0.455000013       3.52842058E-08
  0.456250012       3.63617509E-08
  0.457500011       3.74535816E-08
  0.458750010       3.85592713E-08
  0.460000008       3.96783868E-08
  0.461250007       4.08104839E-08
  0.462500006       4.19551078E-08
  0.463750005       4.31117968E-08
  0.465000004       4.42800712E-08
  0.466250002       4.54594371E-08
  0.467500001       4.66493937E-08
  0.468750000       4.78494186E-08
  0.469999999       4.90589791E-08
  0.471249998       5.02775244E-08
  0.472499996       5.15044967E-08
  0.473749995       5.27393240E-08
  0.474999994       5.39814344E-08
  0.476249993       5.52302524E-08
  0.477499992       5.64851987E-08
  0.478749990       5.77457016E-08
  0.479999989       5.90111995E-08
  0.481249988       6.02811312E-08
  0.482499987       6.15549638E-08
  0.483749986       6.28321715E-08
  0.485000014       6.41122355E-08
  0.486250013       6.53946444E-08
  0.487500012       6.66789077E-08
  0.488750011       6.79645353E-08
  0.490000010       6.92510653E-08
  0.491250008       7.05380145E-08
  0.492500007       7.18249140E-08
  0.493750006       7.31112877E-08
  0.495000005       7.43966737E-08
  0.496250004       7.56806031E-08
  0.497500002       7.69625998E-08
  0.498750001       7.82421807E-08
  0.500000000       7.95188839E-08
  0.501250029       8.07922333E-08
  0.502499998       8.20617601E-08
  0.503750026       8.33270022E-08
  0.504999995       8.45875121E-08
  0.506250024       8.58428493E-08
  0.507499993       8.70925945E-08
  0.508750021       8.83363427E-08
  0.509999990       8.95736960E-08
  0.511250019       9.08042921E-08
  0.512499988       9.20277614E-08
  0.513750017       9.32437700E-08
  0.514999986       9.44519840E-08
  0.516250014       9.56520907E-08
  0.517499983       9.68437917E-08
  0.518750012       9.80267956E-08
  0.519999981       9.92008182E-08
  0.521250010       1.00365590E-07
  0.522499979       1.01520840E-07
  0.523750007       1.02666306E-07
  0.524999976       1.03801732E-07
  0.526250005       1.04926869E-07
  0.527499974       1.06041476E-07
  0.528750002       1.07145326E-07
  0.529999971       1.08238190E-07
  0.531250000       1.09319856E-07
  0.532500029       1.10390118E-07
  0.533749998       1.11448784E-07
  0.535000026       1.12495684E-07
  0.536249995       1.13530646E-07
  0.537500024       1.14553529E-07
  0.538749993       1.15564184E-07
  0.540000021       1.16562504E-07
  0.541249990       1.17548367E-07
  0.542500019       1.18521690E-07
  0.543749988       1.19482394E-07
  0.545000017       1.20430414E-07
  0.546249986       1.21365687E-07
  0.547500014       1.22288171E-07
  0.548749983       1.23197850E-07
  0.550000012       1.24094711E-07
  0.551249981       1.24978740E-07
  0.552500010       1.25849951E-07
  0.553749979       1.26708358E-07
  0.555000007       1.27553989E-07
  0.556249976       1.28386887E-07
  0.557500005       1.29207109E-07
  0.558749974       1.30014712E-07
  0.560000002       1.30809795E-07
  0.561249971       1.31592429E-07
  0.562500000       1.32362700E-07
  0.563750029       1.33120736E-07
  0.564999998       1.33866635E-07
  0.566250026       1.34600555E-07
  0.567499995       1.35322622E-07
  0.568750024       1.36033009E-07
  0.569999993       1.36731870E-07
  0.571250021       1.37419377E-07
  0.572499990       1.38095743E-07
  0.573750019       1.38761166E-07
  0.574999988       1.39415874E-07
  0.576250017       1.40060095E-07
  0.577499986       1.40694070E-07
  0.578750014       1.41318040E-07
  0.579999983       1.41932276E-07
  0.581250012       1.42537033E-07
  0.582499981       1.43132581E-07
  0.583750010       1.43719205E-07
  0.584999979       1.44297175E-07
  0.586250007       1.44866775E-07
  0.587499976       1.45428302E-07
  0.588750005       1.45982042E-07
  0.589999974       1.46528293E-07
  0.591250002       1.47067354E-07
  0.592499971       1.47599550E-07
  0.593750000       1.48125210E-07
  0.595000029       1.48644631E-07
  0.596249998       1.49158168E-07
  0.597500026       1.49666178E-07
  0.598749995       1.50169029E-07
  0.600000024       1.50667077E-07
  0.601249993       1.51160719E-07
  0.602500021       1.51650354E-07
  0.603749990       1.52136380E-07
  0.605000019       1.52619194E-07
  0.606249988       1.53099236E-07
  0.607500017       1.53576920E-07
  0.608749986       1.54052714E-07
  0.610000014       1.54527015E-07
  0.611249983       1.55000293E-07
  0.612500012       1.55472975E-07
  0.613749981       1.55945514E-07
  0.615000010       1.56418324E-07
  0.616249979       1.56891886E-07
  0.617500007       1.57366614E-07
  0.618749976       1.57842976E-07
  0.620000005       1.58321399E-07
  0.621249974       1.58802337E-07
  0.622500002       1.59286230E-07
  0.623749971       1.59773535E-07
  0.625000000       1.60264705E-07
  0.626250029       1.60760194E-07
  0.627499998       1.61260473E-07
  0.628750026       1.61766010E-07
  0.629999995       1.62277260E-07
  0.631250024       1.62794706E-07
  0.632499993       1.63318830E-07
  0.633750021       1.63850117E-07
  0.634999990       1.64389050E-07
  0.636250019       1.64936139E-07
  0.637499988       1.65491855E-07
  0.638750017       1.66056694E-07
  0.639999986       1.66631139E-07
  0.641250014       1.67215674E-07
  0.642499983       1.67810782E-07
  0.643750012       1.68416918E-07
  0.644999981       1.69034550E-07
  0.646250010       1.69664119E-07
  0.647499979       1.70306052E-07
  0.648750007       1.70960774E-07
  0.649999976       1.71628685E-07
  0.651250005       1.72310195E-07
  0.652499974       1.73005660E-07
  0.653750002       1.73715463E-07
  0.654999971       1.74439961E-07
  0.656250000       1.75179522E-07
  0.657500029       1.75934488E-07
  0.658749998       1.76705214E-07
  0.660000026       1.77492055E-07
  0.661249995       1.78295338E-07
  0.662500024       1.79115418E-07
  0.663749993       1.79952636E-07
  0.665000021       1.80807334E-07
  0.666249990       1.81679852E-07
  0.667500019       1.82570531E-07
  0.668749988       1.83479713E-07
  0.670000017       1.84407696E-07
  0.671249986       1.85354807E-07
  0.672500014       1.86321330E-07
  0.673749983       1.87307563E-07
  0.675000012       1.88313763E-07
  0.676249981       1.89340170E-07
  0.677500010       1.90387027E-07
  0.678749979       1.91454561E-07
  0.680000007       1.92542956E-07
  0.681249976       1.93652397E-07
  0.682500005       1.94783070E-07
  0.683749974       1.95935101E-07
  0.685000002       1.97108676E-07
  0.686249971       1.98303937E-07
  0.687500000       1.99520997E-07
  0.688750029       2.00759999E-07
  0.689999998       2.02021042E-07
  0.691250026       2.03304211E-07
  0.692499995       2.04609591E-07
  0.693750024       2.05937226E-07
  0.694999993       2.07287158E-07
  0.696250021       2.08659372E-07
  0.697499990       2.10053813E-07
  0.698750019       2.11470379E-07
  0.699999988       2.12908915E-07
  0.701250017       2.14369223E-07
  0.702499986       2.15851017E-07
  0.703750014       2.17353957E-07
  0.704999983       2.18877645E-07
  0.706250012       2.20421597E-07
  0.707499981       2.21985232E-07
  0.708750010       2.23567909E-07
  0.709999979       2.25168876E-07
  0.711250007       2.26787321E-07
  0.712499976       2.28422294E-07
  0.713750005       2.30072800E-07
  0.714999974       2.31737687E-07
  0.716250002       2.33415747E-07
  0.717499971       2.35105588E-07
  0.718750000       2.36805718E-07
  0.720000029       2.38514502E-07
  0.721249998       2.40230150E-07
  0.722500026       2.41950744E-07
  0.723749995       2.43674180E-07
  0.725000024       2.45398184E-07
  0.726249993       2.47120283E-07
  0.727500021       2.48837836E-07
  0.728749990       2.50547970E-07
  0.730000019       2.52247645E-07
  0.731249988       2.53933564E-07
  0.732500017       2.55602288E-07
  0.733749986       2.57250093E-07
  0.735000014       2.58873030E-07
  0.736249983       2.60466976E-07
  0.737500012       2.62027527E-07
  0.738749981       2.63550078E-07
  0.740000010       2.65029826E-07
  0.741249979       2.66461683E-07
  0.742500007       2.67840392E-07
  0.743749976       2.69160410E-07
  0.745000005       2.70416024E-07
  0.746249974       2.71601323E-07
  0.747500002       2.72710110E-07
  0.748749971       2.73736021E-07
  0.750000000       2.74672487E-07
  0.751250029       2.75512690E-07
  0.752499998       2.76249665E-07
  0.753750026       2.76876193E-07
  0.754999995       2.77384885E-07
  0.756250024       2.77768237E-07
  0.757499993       2.78018490E-07
  0.758750021       2.78127771E-07
  0.759999990       2.78088066E-07
  0.761250019       2.77891274E-07
  0.762499988       2.77529097E-07
  0.763750017       2.76993205E-07
  0.764999986       2.76275216E-07
  0.766250014       2.75366688E-07
  0.767499983       2.74259122E-07
  0.768750012       2.72944078E-07
  0.769999981       2.71413086E-07
  0.771250010       2.69657789E-07
  0.772499979       2.67669918E-07
  0.773750007       2.65441258E-07
  0.774999976       2.62963795E-07
  0.776250005       2.60229598E-07
  0.777499974       2.57231022E-07
  0.778750002       2.53960565E-07
  0.779999971       2.50411006E-07
  0.781250000       2.46575354E-07
  0.782500029       2.42446987E-07
  0.783749998       2.38019524E-07
  0.785000026       2.33286983E-07
  0.786249995       2.28243735E-07
  0.787500024       2.22884580E-07
  0.788749993       2.17204743E-07
  0.790000021       2.11199890E-07
  0.791249990       2.04866197E-07
  0.792500019       1.98200368E-07
  0.793749988       1.91199689E-07
  0.795000017       1.83862014E-07
  0.796249986       1.76185793E-07
  0.797500014       1.68170160E-07
  0.798749983       1.59814888E-07
  0.800000012       1.51120460E-07
  0.801249981       1.42088084E-07
  0.802500010       1.32719705E-07
  0.803749979       1.23017998E-07
  0.805000007       1.12986392E-07
  0.806249976       1.02629116E-07
  0.807500005       9.19511578E-08
  0.808749974       8.09583014E-08
  0.810000002       6.96571121E-08
  0.811249971       5.80549440E-08
  0.812500000       4.61599399E-08
  0.813750029       3.39810313E-08
  0.814999998       2.15279279E-08
  0.816250026       8.81113049E-09
  0.817499995      -4.15808632E-09
  0.818750024      -1.73676753E-08
  0.819999993      -3.08048236E-08
  0.821250021      -4.44559767E-08
  0.822499990      -5.83068243E-08
  0.823750019      -7.23423383E-08
  0.824999988      -8.65467911E-08
  0.826250017      -1.00903769E-07
  0.827499986      -1.15396197E-07
  0.828750014      -1.30006399E-07
  0.829999983      -1.44716068E-07
  0.831250012      -1.59506413E-07
  0.832499981      -1.74358078E-07
  0.833750010      -1.89251267E-07
  0.834999979      -2.04165744E-07
  0.836250007      -2.19080931E-07
  0.837499976      -2.33975896E-07
  0.838750005      -2.48829423E-07
  0.839999974      -2.63620137E-07
  0.841250002      -2.78326411E-07
  0.842499971      -2.92926501E-07
  0.843750000      -3.07398665E-07
  0.845000029      -3.21721046E-07
  0.846249998      -3.35871817E-07
  0.847500026      -3.49829293E-07
  0.848749995      -3.63571843E-07
  0.850000024      -3.77078095E-07
  0.851249993      -3.90326818E-07
  0.852500021      -4.03297122E-07
  0.853749990      -4.15968515E-07
  0.855000019      -4.28320845E-07
  0.856249988      -4.40334389E-07
  0.857500017      -4.51990019E-07
  0.858749986      -4.63269117E-07
  0.860000014      -4.74153751E-07
  0.861249983      -4.84626582E-07
  0.862500012      -4.94671099E-07
  0.863749981      -5.04271554E-07
  0.865000010      -5.13412886E-07
  0.866249979      -5.22081109E-07
  0.867500007      -5.30262980E-07
  0.868749976      -5.37946335E-07
  0.870000005      -5.45119860E-07