 -0.200000003       0.00000000    
 -0.198750004       0.00000000    
 -0.197500005       0.00000000    
 -0.196250007       0.00000000    
 -0.194999993       0.00000000    
 -0.193749994       0.00000000    
 -0.192499995       0.00000000    
 -0.191249996       0.00000000    
 -0.189999998       0.00000000    
 -0.188749999       0.00000000    
 -0.187500000       0.00000000    
 -0.186250001       0.00000000    
 -0.185000002       0.00000000    
 -0.183750004       0.00000000    
 -0.182500005       0.00000000    
 -0.181250006       0.00000000    
 -0.180000007       0.00000000    
 -0.178749993       0.00000000    
 -0.177499995       0.00000000    
 -0.176249996       0.00000000    
 -0.174999997       0.00000000    
 -0.173749998       0.00000000    
 -0.172499999       0.00000000    
 -0.171250001       0.00000000    
 -0.170000002       0.00000000    
 -0.168750003       0.00000000    
 -0.167500004       0.00000000    
 -0.166250005       0.00000000    
 -0.165000007       0.00000000    
 -0.163749993       0.00000000    
 -0.162499994       0.00000000    
 -0.161249995       0.00000000    
 -0.159999996       0.00000000    
 -0.158749998       0.00000000    
 -0.157499999       0.00000000    
 -0.156250000       0.00000000    
 -0.155000001       0.00000000    
 -0.153750002       5.60519386E-42
 -0.152500004       2.80259693E-41
 -0.151250005       3.36311631E-41
 -0.150000006       2.35563877E-40
 -0.148750007       4.97285793E-40
 -0.147499993       7.42044990E-40
 -0.146249995       7.11436428E-40
 -0.144999996       1.40421317E-40
 -0.143749997      -1.17249305E-39
 -0.142499998      -4.08463649E-39
 -0.141249999      -1.02712487E-38
 -0.140000001      -2.06139468E-38
 -0.138750002      -3.15508347E-38
 -0.137500003      -3.82992302E-38
 -0.136250004      -2.41960412E-38
 -0.135000005       3.11011720E-38
 -0.133750007       1.65797419E-37
 -0.132499993       4.15105097E-37
 -0.131249994       7.95481399E-37
 -0.129999995       1.25864207E-36
 -0.128749996       1.61405530E-36
 -0.127499998       1.45355062E-36
 -0.126249999       6.13803872E-38
 -0.125000000      -3.55956356E-36
 -0.123750001      -1.05130844E-35
 -0.122500002      -2.14872920E-35
 -0.121250004      -3.57998986E-35
 -0.119999997      -4.99458194E-35
 -0.118749999      -5.58695762E-35
 -0.117500000      -3.94846142E-35
 -0.116250001       1.94326550E-35
 -0.115000002       1.44338022E-34
 -0.113750003       3.54018858E-34
 -0.112499997       6.47916048E-34
 -0.111249998       9.84331694E-34
 -0.109999999       1.25405438E-33
 -0.108750001       1.25679356E-33
 -0.107500002       6.93979171E-34
 -0.106250003      -8.02259925E-34
 -0.104999997      -3.58052457E-33
 -0.103749998      -7.80175160E-33
 -0.102499999      -1.31852806E-32
 -0.101250000      -1.86938529E-32
 -0.100000001      -2.22289890E-32
  -9.87500027E-02  -2.04675431E-32
  -9.74999964E-02  -9.02885970E-33
  -9.62499976E-02   1.68033935E-32
  -9.49999988E-02   6.06035575E-32
  -9.37500000E-02   1.22484278E-31
  -9.25000012E-02   1.96090067E-31
  -9.12500024E-02   2.65428388E-31
  -9.00000036E-02   3.02531433E-31
  -8.87499973E-02   2.67411353E-31
  -8.74999985E-02   1.12081071E-31
  -8.62499997E-02  -2.09649982E-31
  -8.50000009E-02  -7.25586301E-31
  -8.37500021E-02  -1.42223400E-30
  -8.25000033E-02  -2.21841156E-30
  -8.12499970E-02  -2.94127777E-30
  -7.99999982E-02  -3.31386377E-30
  -7.87499994E-02  -2.96570849E-30
  -7.75000006E-02  -1.47865688E-30
  -7.62500018E-02   1.52273002E-30
  -7.50000030E-02   6.23402383E-30
  -7.37499967E-02   1.24967109E-29
  -7.24999979E-02   1.96130687E-29
  -7.12499991E-02   2.61944678E-29
  -7.00000003E-02   3.01040154E-29
  -6.87500015E-02   2.85640508E-29
  -6.75000027E-02   1.84947323E-29
  -6.62499964E-02  -2.87246113E-30
  -6.49999976E-02  -3.71083758E-29
  -6.37499988E-02  -8.34964057E-29
  -6.25000000E-02  -1.37893623E-28
  -6.12500012E-02  -1.91787498E-28
  -5.99999987E-02  -2.31868725E-28
  -5.87499999E-02  -2.40485793E-28
  -5.75000010E-02  -1.97331215E-28
  -5.62499985E-02  -8.26136557E-29
  -5.49999997E-02   1.18215229E-28
  -5.37500009E-02   4.08398452E-28
  -5.24999984E-02   7.73069435E-28
  -5.12499996E-02   1.17273736E-27
  -5.00000007E-02   1.53854705E-27
  -4.87499982E-02   1.77119823E-27
  -4.74999994E-02   1.74565385E-27
  -4.62500006E-02   1.32377264E-27
  -4.50000018E-02   3.76539021E-28
  -4.37499993E-02  -1.18343349E-27
  -4.25000004E-02  -3.36018577E-27
  -4.12500016E-02  -6.02715886E-27
  -3.99999991E-02  -8.88141592E-27
  -3.87500003E-02  -1.14102089E-26
  -3.75000015E-02  -1.28846108E-26
  -3.62499990E-02  -1.23976332E-26
  -3.50000001E-02  -8.96422475E-27
  -3.37500013E-02  -1.69677721E-27
  -3.24999988E-02   9.94054027E-27
  -3.12500000E-02   2.58122360E-26
  -2.99999993E-02   4.47642880E-26
  -2.87500005E-02   6.43166185E-26
  -2.74999999E-02   8.04907199E-26
  -2.62499992E-02   8.78915725E-26
  -2.50000004E-02   8.01667014E-26
  -2.37499997E-02   5.09420950E-26
  -2.25000009E-02  -4.72788954E-27
  -2.12500002E-02  -8.84646122E-26
  -1.99999996E-02  -1.96439714E-25
  -1.87500007E-02  -3.17403707E-25
  -1.75000001E-02  -4.31421767E-25
  -1.62499994E-02  -5.09978016E-25
  -1.49999997E-02  -5.18121525E-25
  -1.37499999E-02  -4.19171596E-25
  -1.25000002E-02  -1.82144162E-25
  -1.12500004E-02   2.08505971E-25
  -9.99999978E-03   7.41979690E-25
  -8.75000004E-03   1.37103069E-24
  -7.49999983E-03   2.00537573E-24
  -6.25000009E-03   2.51174989E-24
  -4.99999989E-03   2.72361229E-24
  -3.74999992E-03   2.46266203E-24
  -2.49999994E-03   1.57253525E-24
  -1.24999997E-03  -3.75470181E-26
   0.00000000      -2.34462280E-24
   1.24999997E-03  -5.16811217E-24
   2.49999994E-03  -8.14172454E-24
   3.74999992E-03  -1.07138465E-23
   4.99999989E-03  -1.21880477E-23
   6.25000009E-03  -1.18110408E-23
   7.49999983E-03  -8.90803349E-24
   8.75000004E-03  -3.05499895E-24
   9.99999978E-03   5.73478252E-24
   1.12500004E-02   1.68440562E-23
   1.25000002E-02   2.89477021E-23
   1.37499999E-02   4.00169921E-23
   1.49999997E-02   4.74708125E-23
   1.62499994E-02   4.84957353E-23
   1.75000001E-02   4.05291458E-23
   1.87500007E-02   2.18630812E-23
   1.99999996E-02  -7.71284374E-24
   2.12500002E-02  -4.63474083E-23
   2.25000009E-02  -8.97844311E-23
   2.37499997E-02  -1.31382575E-22
   2.50000004E-02  -1.62615169E-22
   2.62499992E-02  -1.74105212E-22
   2.74999999E-02  -1.57161805E-22
   2.87500005E-02  -1.05671932E-22
   2.99999993E-02  -1.80856018E-23
   3.12500000E-02   1.00866646E-22
   3.24999988E-02   2.39139157E-22
   3.37500013E-02   3.77423975E-22
   3.50000001E-02   4.90599589E-22
   3.62499990E-02   5.50699885E-22
   3.75000015E-02   5.31268108E-22
   3.87500003E-02   4.12653442E-22
   3.99999991E-02   1.87508690E-22
   4.12500016E-02  -1.34491911E-22
   4.25000004E-02  -5.23804853E-22
   4.37499993E-02  -9.31056302E-22
   4.50000018E-02  -1.29069620E-21
   4.62500006E-02  -1.52850164E-21
   4.74999994E-02  -1.57249286E-21
   4.87499982E-02  -1.36609615E-21
   5.00000007E-02  -8.81684767E-22
   5.12499996E-02  -1.32146432E-22
   5.24999984E-02   8.22047943E-22
   5.37500009E-02   1.87251254E-21
   5.49999997E-02   2.87085229E-21
   5.62499985E-02   3.64509335E-21
   5.75000010E-02   4.02346708E-21
   5.87499999E-02   3.86279573E-21
   5.99999987E-02   3.07739723E-21
   6.12500012E-02   1.66358784E-21
   6.25000000E-02  -2.85206892E-22
   6.37499988E-02  -2.57686774E-21
   6.49999976E-02  -4.93491389E-21
   6.62499964E-02  -7.02863041E-21
   6.75000027E-02  -8.51604655E-21
   6.87500015E-02  -9.09410766E-21
   7.00000003E-02  -8.54834456E-21
   7.12499991E-02  -6.79359156E-21
   7.24999979E-02  -3.89800826E-21
   7.37499967E-02  -8.50725081E-23
   7.50000030E-02   4.28816124E-21
   7.62500018E-02   8.77360668E-21
   7.75000006E-02   1.28883819E-20
   7.87499994E-02   1.61742745E-20
   7.99999982E-02   1.82487207E-20
   8.12499970E-02   1.88371644E-20
   8.25000033E-02   1.77806609E-20
   8.37500021E-02   1.50190909E-20
   8.50000009E-02   1.05577892E-20
   8.62499997E-02   4.43190771E-21
   8.74999985E-02  -3.31267741E-21
   8.87499973E-02  -1.26039885E-20
   9.00000036E-02  -2.32815541E-20
   9.12500024E-02  -3.49864667E-20
   9.25000012E-02  -4.70185454E-20
   9.37500000E-02  -5.81938040E-20
   9.49999988E-02  -6.67488355E-20
   9.62499976E-02  -7.03485575E-20
   9.74999964E-02  -6.62493864E-20
   9.87500027E-02  -5.16535001E-20
  0.100000001      -2.42574931E-20
  0.101250000       1.70456543E-20
  0.102499999       7.14027927E-20
  0.103749998       1.35314664E-19
  0.104999997       2.02201729E-19
  0.106250003       2.62404464E-19
  0.107500002       3.03774609E-19
  0.108750001       3.12949516E-19
  0.109999999       2.77295085E-19
  0.111249998       1.87373172E-19
  0.112499997       3.96427149E-20
  0.113750003      -1.61025815E-19
  0.115000002      -3.99530847E-19
  0.116250001      -6.49944293E-19
  0.117500000      -8.76597210E-19
  0.118749999      -1.03713043E-18
  0.119999997      -1.08752754E-18
  0.121250004      -9.88805914E-19
  0.122500002      -7.14676139E-19
  0.123750001      -2.59142684E-19
  0.125000000       3.57227047E-19
  0.126249999       1.08371889E-18
  0.127499998       1.83980561E-18
  0.128749996       2.52028429E-18
  0.129999995       3.00549396E-18
  0.131249994       3.17618289E-18
  0.132499993       2.93170800E-18
  0.133750007       2.20947304E-18
  0.135000005       1.00286023E-18
  0.136250004      -6.25416320E-19
  0.137500003      -2.53751839E-18
  0.138750002      -4.52467051E-18
  0.140000001      -6.32269894E-18
  0.141249999      -7.63881443E-18
  0.142499998      -8.18786715E-18
  0.143749997      -7.73451509E-18
  0.144999996      -6.13627849E-18
  0.146249995      -3.38139027E-18
  0.147499993       3.84890241E-19
  0.148750007       4.85129435E-18
  0.150000006       9.55310228E-18
  0.151250005       1.39081420E-17
  0.152500004       1.72750517E-17
  0.153750002       1.90293611E-17
  0.155000001       1.86498242E-17
  0.156250000       1.58048209E-17
  0.157499999       1.04272494E-17
  0.158749998       2.76613953E-18
  0.159999996      -6.59522104E-18
  0.161249995      -1.67618275E-17
  0.162499994      -2.65929567E-17
  0.163749993      -3.48090704E-17
  0.165000007      -4.01315872E-17
  0.166250005      -4.14420068E-17
  0.167500004      -3.79432412E-17
  0.168750003      -2.93033033E-17
  0.170000002      -1.57615213E-17
  0.171250001       1.82007776E-18
  0.172499999       2.19731149E-17
  0.173749998       4.27130161E-17
  0.174999997       6.17010430E-17
  0.176249996       7.64681095E-17
  0.177499995       8.46812917E-17
  0.178749993       8.44285914E-17
  0.180000007       7.44916376E-17
  0.181250006       5.45752030E-17
  0.182500005       2.54634317E-17
  0.183750004      -1.09223922E-17
  0.185000002      -5.15820698E-17
  0.186250001      -9.26186720E-17
  0.187500000      -1.29539806E-16
  0.188749999      -1.57661869E-16
  0.189999998      -1.72588654E-16
  0.191249996      -1.70723818E-16
  0.192499995      -1.49770936E-16
  0.193749994      -1.09166639E-16
  0.194999993      -5.03943609E-17
  0.196250007       2.28711419E-17
  0.197500005       1.04828890E-16
  0.198750004       1.87851539E-16
  0.200000003       2.63025700E-16
  0.201250002       3.20915187E-16
  0.202500001       3.52502184E-16
  0.203749999       3.50236371E-16
  0.204999998       3.09096007E-16
  0.206249997       2.27547910E-16
  0.207499996       1.08281959E-16
  0.208749995      -4.14000952E-17
  0.209999993      -2.09647126E-16
  0.211250007      -3.80644192E-16
  0.212500006      -5.35746169E-16
  0.213750005      -6.55125669E-16
  0.215000004      -7.19833745E-16
  0.216250002      -7.14104890E-16
  0.217500001      -6.27676719E-16
  0.218750000      -4.57854713E-16
  0.219999999      -2.11033388E-16
  0.221249998       9.65986350E-17
  0.222499996       4.39389659E-16
  0.223749995       7.83721205E-16
  0.224999994       1.09068134E-15
  0.226249993       1.31978056E-15
  0.227500007       1.43342941E-15
  0.228750005       1.40175864E-15
  0.230000004       1.20725192E-15
  0.231250003       8.48610864E-16
  0.232500002       3.43267963E-16
  0.233750001      -2.71950145E-16
  0.234999999      -9.42352318E-16
  0.236249998      -1.59924087E-15
  0.237499997      -2.16595684E-15
  0.238749996      -2.56569308E-15
  0.239999995      -2.73038741E-15
  0.241249993      -2.60977733E-15
  0.242500007      -2.17957438E-15
  0.243750006      -1.44766348E-15
  0.245000005      -4.57362534E-16
  0.246250004       7.13024818E-16
  0.247500002       1.95475807E-15
  0.248750001       3.13728489E-15
  0.250000000       4.12042650E-15
  0.251249999       4.76913304E-15
  0.252499998       4.96941016E-15
  0.253749996       4.64371414E-15
  0.254999995       3.76400478E-15
  0.256249994       2.36069141E-15
  0.257499993       5.26021119E-16
  0.258749992      -1.58909787E-15
  0.259999990      -3.78518187E-15
  0.261249989      -5.83077703E-15
  0.262499988      -7.48442039E-15
  0.263749987      -8.52008927E-15
  0.264999986      -8.75367300E-15
  0.266250014      -8.06767711E-15
  0.267500013      -6.43126664E-15
  0.268750012      -3.91296950E-15
  0.270000011      -6.83949935E-16
  0.271250010       2.98947044E-15
  0.272500008       6.76429712E-15
  0.273750007       1.02494858E-14
  0.275000006       1.30425989E-14
  0.276250005       1.47714364E-14
  0.277500004       1.51366566E-14
  0.278750002       1.39510003E-14
  0.280000001       1.11706163E-14
  0.281250000       6.91445616E-15
  0.282499999       1.46847000E-15
  0.283749998      -4.72723582E-15
  0.284999996      -1.11086491E-14
  0.286249995      -1.70340443E-14
  0.287499994      -2.18427927E-14
  0.288749993      -2.49219472E-14
  0.289999992      -2.57744621E-14
  0.291249990      -2.40820039E-14
  0.292499989      -1.97555019E-14
  0.293749988      -1.29668733E-14
  0.294999987      -4.15698910E-15
  0.296249986       5.98329844E-15
  0.297500014       1.65596415E-14
  0.298750013       2.65459008E-14
  0.300000012       3.48761954E-14
  0.301250011       4.05496085E-14
  0.302500010       4.27379452E-14
  0.303750008       4.08859280E-14
  0.305000007       3.47926610E-14
  0.306250006       2.46644678E-14
  0.307500005       1.11310361E-14
  0.308750004      -4.77979845E-15
  0.310000002      -2.17099898E-14
  0.311250001      -3.80784576E-14
  0.312500000      -5.22200860E-14
  0.313749999      -6.25450077E-14
  0.314999998      -6.77038720E-14
  0.316249996      -6.67425980E-14
  0.317499995      -5.92303848E-14
  0.318749994      -4.53456344E-14
  0.319999993      -2.59079698E-14
  0.321249992      -2.34869975E-15
  0.322499990       2.33819125E-14
  0.323749989       4.89663072E-14
  0.324999988       7.19194195E-14
  0.326249987       8.98202953E-14
  0.327499986       1.00554744E-13
  0.328750014       1.02545746E-13
  0.330000013       9.49477110E-14
  0.331250012       7.77828052E-14
  0.332500011       5.20015380E-14
  0.333750010       1.94563044E-14
  0.335000008      -1.72156211E-14
  0.336250007      -5.47945038E-14
  0.337500006      -8.97518618E-14
  0.338750005      -1.18573296E-13
  0.340000004      -1.38102136E-13
  0.341250002      -1.45871135E-13
  0.342500001      -1.40389030E-13
  0.343750000      -1.21350033E-13
  0.344999999      -8.97408165E-14
  0.346249998      -4.78272105E-14
  0.347499996       9.86088123E-16
  0.348749995       5.24176751E-14
  0.349999994       1.01675185E-13
  0.351249993       1.43895502E-13
  0.352499992       1.74620220E-13
  0.353749990       1.90261327E-13
  0.354999989       1.88509703E-13
  0.356249988       1.68640777E-13
  0.357499987       1.31681111E-13
  0.358749986       8.04081601E-14
  0.360000014       1.91730160E-14
  0.361250013      -4.64473668E-14
  0.362500012      -1.10144953E-13
  0.363750011      -1.65480178E-13
  0.365000010      -2.06532626E-13
  0.366250008      -2.28536726E-13
  0.367500007      -2.28437820E-13
  0.368750006      -2.05303575E-13
  0.370000005      -1.60538819E-13
  0.371250004      -9.78683484E-14
  0.372500002      -2.30741888E-14
  0.373750001       5.64997505E-14
  0.375000000       1.32639342E-13
  0.376249999       1.97086081E-13
  0.377499998       2.42417631E-13
  0.378749996       2.62892057E-13
  0.379999995       2.55163105E-13
  0.381249994       2.18779706E-13
  0.382499993       1.56403278E-13
  0.383749992       7.37013125E-14
  0.384999990      -2.10938749E-14
  0.386249989      -1.17932072E-13
  0.387499988      -2.05938145E-13
  0.388749987      -2.74558479E-13
  0.389999986      -3.14744406E-13
  0.391250014      -3.20048756E-13
  0.392500013      -2.87508813E-13
  0.393750012      -2.18206624E-13
  0.395000011      -1.17424137E-13
  0.396250010       5.64753119E-15
  0.397500008       1.38645904E-13
  0.398750007       2.67167907E-13
  0.400000006       3.76200508E-13
  0.401250005       4.51713618E-13
  0.402500004       4.82260499E-13
  0.403750002       4.60410301E-13
  0.405000001       3.83852726E-13
  0.406250000       2.56034912E-13
  0.407499999       8.62344931E-14
  0.408749998      -1.10978995E-13
  0.409999996      -3.16877736E-13
  0.411249995      -5.10222615E-13
  0.412499994      -6.69293559E-13
  0.413749993      -7.74112816E-13
  0.414999992      -8.08652028E-13
  0.416249990      -7.62793312E-13
  0.417499989      -6.33827246E-13
  0.418749988      -4.27310775E-13
  0.419999987      -1.57146892E-13
  0.421249986       1.55166312E-13
  0.422500014       4.82106109E-13
  0.423750013       7.92414149E-13
  0.425000012       1.05391921E-12
  0.426250011       1.23666279E-12
  0.427500010       1.31603257E-12
  0.428750008       1.27560029E-12
  0.430000007       1.10935848E-12
  0.431250006       8.23101678E-13
  0.432500005       4.34752576E-13
  0.433750004      -2.64783973E-14
  0.435000002      -5.22092894E-13
  0.436250001      -1.00736173E-12
  0.437500000      -1.43521219E-12
  0.438749999      -1.76062561E-12
  0.439999998      -1.94515519E-12
  0.441249996      -1.96113069E-12
  0.442499995      -1.79511603E-12
  0.443749994      -1.45022080E-12
  0.444999993      -9.46966789E-13
  0.446249992      -3.22510302E-13
  0.447499990       3.71818461E-13
  0.448749989       1.07453900E-12
  0.449999988       1.71931859E-12
  0.451249987       2.24111376E-12
  0.452499986       2.58260991E-12
  0.453750014       2.70033496E-12
  0.455000013       2.56981285E-12
  0.456250012       2.18919045E-12
  0.457500011       1.58086120E-12
  0.458750010       7.90780364E-13
  0.460000008      -1.14595752E-13
  0.461250007      -1.05362030E-12
  0.462500006      -1.93660908E-12
  0.463750005      -2.67426446E-12
  0.465000004      -3.18657405E-12
  0.466250002      -3.41134261E-12
  0.467500001      -3.31145658E-12
  0.468750000      -2.88007400E-12
  0.469999999      -2.14308541E-12
  0.471249998      -1.15842795E-12
  0.472499996      -1.21270740E-14
  0.473749995       1.18874030E-12
  0.474999994       2.32561127E-12
  0.476249993       3.27975321E-12
  0.477499992       3.94425334E-12
  0.478749990       4.23553467E-12
  0.479999989       4.10319261E-12
  0.481249988       3.53706539E-12
  0.482499987       2.57066092E-12
  0.483749986       1.28037208E-12
  0.485000014      -2.19684310E-13
  0.486250013      -1.78694017E-12
  0.487500012      -3.26308858E-12
  0.488750011      -4.48914994E-12
  0.490000010      -5.32153618E-12
  0.491250008      -5.64755404E-12
  0.492500007      -5.39878689E-12
  0.493750006      -4.56087945E-12
  0.495000005      -3.17853751E-12
  0.496250004      -1.35495879E-12
  0.497500002       7.54602598E-13
  0.498750001       2.95485641E-12
  0.500000000       5.02725465E-12
  0.501250029       6.75018548E-12
  0.502499998       7.92080117E-12
  0.503750026       8.37648614E-12
  0.504999995       8.01379883E-12
  0.506250024       6.80292845E-12
  0.507499993       4.79593665E-12
  0.508750021       2.12758652E-12
  0.509999990      -9.91809174E-13
  0.511250019      -4.29136371E-12
  0.512499988      -7.46151491E-12
  0.513750017      -1.01811597E-11
  0.514999986      -1.21478522E-11
  0.516250014      -1.31083122E-11
  0.517499983      -1.28863699E-11
  0.518750012      -1.14055605E-11
  0.519999981      -8.70376601E-12
  0.521250010      -4.93805170E-12
  0.522499979      -3.78530703E-13
  0.523750007       4.60891091E-12
  0.524999976       9.59010909E-12
  0.526250005       1.40985045E-11
  0.527499974       1.76765425E-11
  0.528750002       1.99190872E-11
  0.529999971       2.05149508E-11
  0.531250000       1.92824905E-11
  0.532500029       1.61955657E-11
  0.533749998       1.13968106E-11
  0.535000026       5.19617769E-12
  0.536249995      -1.94611167E-12
  0.537500024      -9.45156887E-12
  0.538749993      -1.66684166E-11
  0.540000021      -2.29262616E-11
  0.541249990      -2.75959255E-11
  0.542500019      -3.01493379E-11
  0.543749988      -3.02140361E-11
  0.545000017      -2.76168550E-11
  0.546249986      -2.24122578E-11
  0.547500014      -1.48917597E-11
  0.548749983      -5.57249646E-12
  0.550000012       4.83527281E-12
  0.551249981       1.54800079E-11
  0.552500010       2.54365123E-11
  0.553749979       3.37841664E-11
  0.555000007       3.96893282E-11
  0.556249976       4.24847379E-11
  0.557500005       4.17386854E-11
  0.558749974       3.73071157E-11
  0.560000002       2.93630953E-11
  0.561249971       1.83998806E-11
  0.562500000       5.20560808E-12
  0.563750029      -9.18948771E-12
  0.564999998      -2.35902287E-11
  0.566250026      -3.67325996E-11
  0.567499995      -4.73912576E-11
  0.568750024      -5.44895934E-11
  0.569999993      -5.72028987E-11
  0.571250021      -5.50449929E-11
  0.572499990      -4.79299551E-11
  0.573750019      -3.62021385E-11
  0.574999988      -2.06300688E-11
  0.576250017      -2.36283779E-12
  0.577499986       1.71492699E-11
  0.578750014       3.62648973E-11
  0.579999983       5.32845018E-11
  0.581250012       6.65957428E-11
  0.582499981       7.48191578E-11
  0.583750010       7.69417793E-11
  0.584999979       7.24258917E-11
  0.586250007       6.12824930E-11
  0.587499976       4.41009382E-11
  0.588750005       2.20297426E-11
  0.589999974      -3.29220071E-12
  0.591250002      -2.98510452E-11
  0.592499971      -5.54122512E-11
  0.593750000      -7.77025111E-11
  0.595000029      -9.46048934E-11
  0.596249998      -1.04351049E-10
  0.597500026      -1.05693461E-10
  0.598749995      -9.80416651E-11
  0.600000024      -8.15489343E-11
  0.601249993      -5.71386653E-11
  0.602500021      -2.64657185E-11
  0.603749990       8.18814808E-12
  0.605000019       4.40782653E-11
  0.606249988       7.82101189E-11
  0.607500017       1.07584733E-10
  0.608749986       1.29457348E-10
  0.610000014       1.41586950E-10
  0.611249983       1.42454923E-10
  0.612500012       1.31431865E-10
  0.613749981       1.08875887E-10
  0.615000010       7.61497393E-11
  0.616249979       3.55521897E-11
  0.617500007      -9.83569129E-12
  0.618749976      -5.63788669E-11
  0.620000005      -1.00176166E-10
  0.621249974      -1.37384507E-10
  0.622500002      -1.64553440E-10
  0.623749971      -1.78941237E-10
  0.625000000      -1.78783863E-10
  0.626250029      -1.63491734E-10
  0.627499998      -1.33753036E-10
  0.628750026      -9.15310466E-11
  0.629999995      -3.99502133E-11
  0.631250024       1.69234904E-11
  0.632499993       7.43941089E-11
  0.633750021       1.27515318E-10
  0.634999990       1.71508738E-10
  0.636250019       2.02185310E-10
  0.637499988       2.16333965E-10
  0.638750017       2.12041440E-10
  0.639999986       1.88912871E-10
  0.641250014       1.48169754E-10
  0.642499983       9.26115226E-11
  0.643750012       2.64380341E-11
  0.644999981      -4.50556953E-11
  0.646250010      -1.15893212E-10
  0.647499979      -1.79904952E-10
  0.648750007      -2.31252753E-10
  0.649999976      -2.64945621E-10
  0.651250005      -2.77301904E-10
  0.652499974      -2.66315442E-10
  0.653750002      -2.31889716E-10
  0.654999971      -1.75916448E-10
  0.656250000      -1.02184233E-10
  0.657500029      -1.61211305E-11
  0.658749998       7.56130575E-11
  0.660000026       1.65654365E-10
  0.661249995       2.46539594E-10
  0.662500024       3.11338760E-10
  0.663749993       3.54262453E-10
  0.665000021       3.71188247E-10
  0.666249990       3.60060898E-10
  0.667500019       3.21126875E-10
  0.668749988       2.56978855E-10
  0.670000017       1.72401898E-10
  0.671249986       7.40295186E-11
  0.672500014      -3.01653806E-11
  0.673749983      -1.31503947E-10
  0.675000012      -2.21307736E-10
  0.676249981      -2.91618812E-10
  0.677500010      -3.35871359E-10
  0.678749979      -3.49457047E-10
  0.680000007      -3.30132671E-10
  0.681249976      -2.78233991E-10
  0.682500005      -1.96672914E-10
  0.683749974      -9.07166009E-11
  0.685000002       3.24361510E-11
  0.686249971       1.64248531E-10
  0.687500000       2.95558467E-10
  0.688750029       4.17351098E-10
  0.689999998       5.21530374E-10
  0.691250026       6.01616978E-10
  0.692499995       6.53317844E-10
  0.693750024       6.74916956E-10
  0.694999993       6.67453315E-10
  0.696250021       6.34670261E-10
  0.697499990       5.82737747E-10
  0.698750019       5.19779608E-10
  0.699999988       4.55229021E-10
  0.701250017       3.99086292E-10
  0.702499986       3.61123881E-10
  0.703750014       3.50122931E-10
  0.704999983       3.73190617E-10
  0.706250012       4.35226744E-10
  0.707499981       5.38581624E-10
  0.708750010       6.82929879E-10
  0.709999979       8.65379990E-10
  0.711250007       1.08080100E-09
  0.712499976       1.32234523E-09
  0.713750005       1.58212043E-09
  0.714999974       1.85195492E-09
  0.716250002       2.12420370E-09
  0.717499971       2.39250708E-09
  0.718750000       2.65245337E-09
  0.720000029       2.90211055E-09
  0.721249998       3.14232840E-09
  0.722500026       3.37685657E-09
  0.723749995       3.61220254E-09
  0.725000024       3.85728338E-09
  0.726249993       4.12289314E-09
  0.727500021       4.42100045E-09
  0.728749990       4.76397322E-09
  0.730000019       5.16372900E-09
  0.731249988       5.63098235E-09
  0.732500017       6.17453955E-09
  0.733749986       6.80074397E-09
  0.735000014       7.51311369E-09
  0.736249983       8.31227265E-09
  0.737500012       9.19605547E-09
  0.738749981       1.01597895E-08
  0.740000010       1.11970184E-08
  0.741249979       1.23001245E-08
  0.742500007       1.34612721E-08
  0.743749976       1.46733798E-08
  0.745000005       1.59309259E-08
  0.746249974       1.72309385E-08
  0.747500002       1.85736617E-08
  0.748749971       1.99629664E-08
  0.750000000       2.14066755E-08
  0.751250029       2.29164971E-08
  0.752499998       2.45077167E-08
  0.753750026       2.61983431E-08
  0.754999995       2.80084969E-08
  0.756250024       2.99591356E-08
  0.757499993       3.20709894E-08
  0.758750021       3.43633069E-08
  0.759999990       3.68523168E-08
  0.761250019       3.95508515E-08
  0.762499988       4.24670539E-08
  0.763750017       4.56038549E-08
  0.764999986       4.89590661E-08
  0.766250014       5.25255786E-08
  0.767499983       5.62919631E-08
  0.768750012       6.02433943E-08
  0.769999981       6.43633626E-08
  0.771250010       6.86344137E-08
  0.772499979       7.30406526E-08
  0.773750007       7.75684086E-08
  0.774999976       8.22083450E-08
  0.776250005       8.69562413E-08
  0.777499974       9.18132557E-08
  0.778750002       9.67874243E-08
  0.779999971       1.01891786E-07
  0.781250000       1.07144707E-07
  0.782500029       1.12568408E-07
  0.783749998       1.18186378E-07
  0.785000026       1.24022449E-07
  0.786249995       1.30098542E-07
  0.787500024       1.36432163E-07
  0.788749993       1.43034910E-07
  0.790000021       1.49911344E-07
  0.791249990       1.57057244E-07
  0.792500019       1.64460332E-07
  0.793749988       1.72098822E-07
  0.795000017       1.79943967E-07
  0.796249986       1.87961319E-07
  0.797500014       1.96110605E-07
  0.798749983       2.04350968E-07
  0.800000012       2.12640927E-07
  0.801249981       2.20941871E-07
  0.802500010       2.29219225E-07
  0.803749979       2.37445306E-07
  0.805000007       2.45598983E-07
  0.806249976       2.53666514E-07
  0.807500005       2.61641020E-07
  0.808749974       2.69521763E-07
  0.810000002       2.77312068E-07
  0.811249971       2.85018984E-07
  0.812500000       2.92648053E-07
  0.813750029       3.00203766E-07
  0.814999998       3.07687429E-07
  0.816250026       3.15092393E-07
  0.817499995       3.22407033E-07
  0.818750024       3.29608127E-07
  0.819999993       3.36670155E-07
  0.821250021       3.43556508E-07
  0.822499990       3.50226856E-07
  0.823750019       3.56633336E-07
  0.824999988       3.62728997E-07
  0.826250017       3.68466743E-07
  0.827499986       3.73802180E-07
  0.828750014       3.78692476E-07
  0.829999983       3.83102957E-07
  0.831250012       3.87005372E-07
  0.832499981       3.90380904E-07
  0.833750010       3.93211081E-07
  0.834999979       3.95488399E-07
  0.836250007       3.97209249E-07
  0.837499976       3.98376159E-07
  0.838750005       3.98986685E-07
  0.839999974       3.99047394E-07
  0.841250002       3.98558598E-07
  0.842499971       3.97517567E-07
  0.843750000       3.95925156E-07
  0.845000029       3.93771757E-07
  0.846249998       3.91048957E-07
  0.847500026       3.87749026E-07
  0.848749995       3.83859600E-07
  0.850000024       3.79373944E-07
  0.851249993       3.74280972E-07
  0.852500021       3.68571165E-07
  0.853749990       3.62255548E-07
  0.855000019       3.55326449E-07
  0.856249988       3.47794895E-07
  0.857500017       3.39676234E-07
  0.858749986       3.30982573E-07
  0.860000014       3.21738383E-07
  0.861249983       3.11970837E-07
  0.862500012       3.01705057E-07
  0.863749981       2.90974043E-07
  0.865000010       2.79799821E-07
  0.866249979       2.68215445E-07
  0.867500007       2.56259767E-07
  0.868749976       2.43956293E-07
  0.870000005       2.31339300E-07