 -0.200000003       0.00000000    
 -0.198750004       0.00000000    
 -0.197500005       0.00000000    
 -0.196250007       0.00000000    
 -0.194999993       0.00000000    
 -0.193749994       0.00000000    
 -0.192499995       0.00000000    
 -0.191249996       0.00000000    
 -0.189999998       0.00000000    
 -0.188749999       0.00000000    
 -0.187500000       0.00000000    
 -0.186250001       0.00000000    
 -0.185000002       0.00000000    
 -0.183750004       0.00000000    
 -0.182500005       0.00000000    
 -0.181250006       0.00000000    
 -0.180000007       0.00000000    
 -0.178749993       0.00000000    
 -0.177499995       0.00000000    
 -0.176249996       0.00000000    
 -0.174999997       0.00000000    
 -0.173749998       0.00000000    
 -0.172499999       0.00000000    
 -0.171250001       0.00000000    
 -0.170000002       0.00000000    
 -0.168750003       0.00000000    
 -0.167500004       0.00000000    
 -0.166250005       0.00000000    
 -0.165000007       0.00000000    
 -0.163749993       0.00000000    
 -0.162499994       0.00000000    
 -0.161249995       0.00000000    
 -0.159999996       0.00000000    
 -0.158749998       0.00000000    
 -0.157499999       0.00000000    
 -0.156250000       0.00000000    
 -0.155000001       0.00000000    
 -0.153750002       0.00000000    
 -0.152500004       0.00000000    
 -0.151250005       0.00000000    
 -0.150000006       0.00000000    
 -0.148750007       0.00000000    
 -0.147499993       0.00000000    
 -0.146249995       0.00000000    
 -0.144999996       0.00000000    
 -0.143749997       0.00000000    
 -0.142499998       0.00000000    
 -0.141249999       0.00000000    
 -0.140000001       0.00000000    
 -0.138750002       0.00000000    
 -0.137500003       0.00000000    
 -0.136250004       0.00000000    
 -0.135000005       0.00000000    
 -0.133750007       0.00000000    
 -0.132499993       0.00000000    
 -0.131249994       0.00000000    
 -0.129999995       0.00000000    
 -0.128749996       0.00000000    
 -0.127499998       0.00000000    
 -0.126249999       0.00000000    
 -0.125000000       0.00000000    
 -0.123750001       0.00000000    
 -0.122500002       0.00000000    
 -0.121250004       0.00000000    
 -0.119999997       0.00000000    
 -0.118749999       0.00000000    
 -0.117500000       0.00000000    
 -0.116250001       0.00000000    
 -0.115000002       0.00000000    
 -0.113750003       0.00000000    
 -0.112499997       0.00000000    
 -0.111249998       0.00000000    
 -0.109999999       0.00000000    
 -0.108750001       0.00000000    
 -0.107500002       0.00000000    
 -0.106250003       0.00000000    
 -0.104999997       0.00000000    
 -0.103749998       0.00000000    
 -0.102499999       0.00000000    
 -0.101250000       0.00000000    
 -0.100000001       0.00000000    
  -9.87500027E-02   0.00000000    
  -9.74999964E-02   0.00000000    
  -9.62499976E-02   0.00000000    
  -9.49999988E-02   0.00000000    
  -9.37500000E-02   0.00000000    
  -9.25000012E-02   0.00000000    
  -9.12500024E-02   0.00000000    
  -9.00000036E-02   0.00000000    
  -8.87499973E-02   0.00000000    
  -8.74999985E-02   0.00000000    
  -8.62499997E-02   0.00000000    
  -8.50000009E-02   0.00000000    
  -8.37500021E-02   0.00000000    
  -8.25000033E-02   0.00000000    
  -8.12499970E-02   0.00000000    
  -7.99999982E-02   0.00000000    
  -7.87499994E-02   0.00000000    
  -7.75000006E-02   0.00000000    
  -7.62500018E-02   0.00000000    
  -7.50000030E-02   0.00000000    
  -7.37499967E-02   0.00000000    
  -7.24999979E-02   0.00000000    
  -7.12499991E-02   0.00000000    
  -7.00000003E-02   0.00000000    
  -6.87500015E-02   0.00000000    
  -6.75000027E-02   0.00000000    
  -6.62499964E-02   0.00000000    
  -6.49999976E-02   0.00000000    
  -6.37499988E-02   0.00000000    
  -6.25000000E-02   0.00000000    
  -6.12500012E-02   0.00000000    
  -5.99999987E-02   0.00000000    
  -5.87499999E-02   0.00000000    
  -5.75000010E-02   0.00000000    
  -5.62499985E-02   0.00000000    
  -5.49999997E-02   0.00000000    
  -5.37500009E-02   0.00000000    
  -5.24999984E-02   0.00000000    
  -5.12499996E-02   0.00000000    
  -5.00000007E-02   0.00000000    
  -4.87499982E-02   0.00000000    
  -4.74999994E-02   0.00000000    
  -4.62500006E-02   0.00000000    
  -4.50000018E-02   0.00000000    
  -4.37499993E-02   0.00000000    
  -4.25000004E-02   0.00000000    
  -4.12500016E-02   0.00000000    
  -3.99999991E-02   0.00000000    
  -3.87500003E-02   0.00000000    
  -3.75000015E-02   0.00000000    
  -3.62499990E-02   0.00000000    
  -3.50000001E-02   0.00000000    
  -3.37500013E-02   0.00000000    
  -3.24999988E-02   0.00000000    
  -3.12500000E-02   0.00000000    
  -2.99999993E-02   0.00000000    
  -2.87500005E-02   0.00000000    
  -2.74999999E-02   0.00000000    
  -2.62499992E-02   0.00000000    
  -2.50000004E-02   0.00000000    
  -2.37499997E-02   0.00000000    
  -2.25000009E-02   0.00000000    
  -2.12500002E-02   0.00000000    
  -1.99999996E-02   0.00000000    
  -1.87500007E-02   0.00000000    
  -1.75000001E-02   0.00000000    
  -1.62499994E-02   0.00000000    
  -1.49999997E-02   0.00000000    
  -1.37499999E-02   0.00000000    
  -1.25000002E-02   0.00000000    
  -1.12500004E-02   0.00000000    
  -9.99999978E-03   0.00000000    
  -8.75000004E-03   0.00000000    
  -7.49999983E-03   0.00000000    
  -6.25000009E-03   0.00000000    
  -4.99999989E-03   0.00000000    
  -3.74999992E-03   0.00000000    
  -2.49999994E-03   0.00000000    
  -1.24999997E-03   0.00000000    
   0.00000000       0.00000000    
   1.24999997E-03   0.00000000    
   2.49999994E-03   0.00000000    
   3.74999992E-03   0.00000000    
   4.99999989E-03   0.00000000    
   6.25000009E-03   0.00000000    
   7.49999983E-03   0.00000000    
   8.75000004E-03   0.00000000    
   9.99999978E-03   0.00000000    
   1.12500004E-02   0.00000000    
   1.25000002E-02   0.00000000    
   1.37499999E-02   0.00000000    
   1.49999997E-02   0.00000000    
   1.62499994E-02   0.00000000    
   1.75000001E-02   0.00000000    
   1.87500007E-02   0.00000000    
   1.99999996E-02   0.00000000    
   2.12500002E-02   0.00000000    
   2.25000009E-02   0.00000000    
   2.37499997E-02   0.00000000    
   2.50000004E-02   0.00000000    
   2.62499992E-02   0.00000000    
   2.74999999E-02   0.00000000    
   2.87500005E-02   0.00000000    
   2.99999993E-02   0.00000000    
   3.12500000E-02   0.00000000    
   3.24999988E-02   0.00000000    
   3.37500013E-02   0.00000000    
   3.50000001E-02   0.00000000    
   3.62499990E-02   5.60519386E-42
   3.75000015E-02   5.60519386E-42
   3.87500003E-02   5.60519386E-42
   3.99999991E-02   5.60519386E-42
   4.12500016E-02   0.00000000    
   4.25000004E-02  -1.12103877E-41
   4.37499993E-02  -2.80259693E-41
   4.50000018E-02  -2.80259693E-41
   4.62500006E-02  -3.92363570E-41
   4.74999994E-02  -3.36311631E-41
   4.87499982E-02  -1.68155816E-41
   5.00000007E-02   3.72226911E-41
   5.12499996E-02   1.39838376E-40
   5.24999984E-02   5.95872745E-40
   5.37500009E-02   7.10706351E-40
   5.49999997E-02   5.44711338E-40
   5.62499985E-02   7.33564332E-40
   5.75000010E-02   5.24741433E-40
   5.87499999E-02   1.86707606E-40
   5.99999987E-02  -1.45202407E-39
   6.12500012E-02  -2.16934174E-39
   6.25000000E-02  -2.68401345E-39
   6.37499988E-02  -2.43278726E-39
   6.49999976E-02  -2.85304367E-39
   6.62499964E-02  -3.01028057E-39
   6.75000027E-02  -1.98698237E-39
   6.87500015E-02   5.27153068E-40
   7.00000003E-02   2.67565190E-39
   7.12499991E-02   6.49696338E-39
   7.24999979E-02   9.58628560E-39
   7.37499967E-02   1.25260038E-38
   7.50000030E-02   1.35550669E-38
   7.62500018E-02   1.34037673E-38
   7.75000006E-02   9.35268354E-39
   7.87499994E-02   3.13068014E-39
   7.99999982E-02  -7.49512369E-39
   8.12499970E-02  -2.03553862E-38
   8.25000033E-02  -3.55402501E-38
   8.37500021E-02  -5.01428031E-38
   8.50000009E-02  -6.16912961E-38
   8.62499997E-02  -6.46167869E-38
   8.74999985E-02  -5.68855262E-38
   8.87499973E-02  -3.41510309E-38
   9.00000036E-02   6.74413702E-39
   9.12500024E-02   6.34815782E-38
   9.25000012E-02   1.31914818E-37
   9.37500000E-02   2.05757519E-37
   9.49999988E-02   2.67272167E-37
   9.62499976E-02   3.04390860E-37
   9.74999964E-02   2.96770329E-37
   9.87500027E-02   2.28810493E-37
  0.100000001       8.61349299E-38
  0.101250000      -1.33356317E-37
  0.102499999      -4.18455344E-37
  0.103749998      -7.43230679E-37
  0.104999997      -1.06047927E-36
  0.106250003      -1.30702646E-36
  0.107500002      -1.40626242E-36
  0.108750001      -1.27997768E-36
  0.109999999      -8.61983303E-37
  0.111249998      -1.12867921E-37
  0.112499997       9.58413623E-37
  0.113750003       2.27973494E-36
  0.115000002       3.70542236E-36
  0.116250001       5.01196561E-36
  0.117500000       5.91742952E-36
  0.118749999       6.09984352E-36
  0.119999997       5.25086633E-36
  0.121250004       3.13265621E-36
  0.122500002      -3.54493647E-37
  0.123750001      -5.10104317E-36
  0.125000000      -1.07349597E-35
  0.126249999      -1.65925419E-35
  0.127499998      -2.17317437E-35
  0.128749996      -2.50090097E-35
  0.129999995      -2.51885136E-35
  0.131249994      -2.11435661E-35
  0.132499993      -1.20640675E-35
  0.133750007       2.29200951E-36
  0.135000005       2.13814401E-35
  0.136250004       4.37070381E-35
  0.137500003       6.67582355E-35
  0.138750002       8.70880085E-35
  0.140000001       1.00546782E-34
  0.141249999       1.02705524E-34
  0.142499998       8.94145977E-35
  0.143749997       5.74985198E-35
  0.144999996       5.49787224E-36
  0.146249995      -6.55972913E-35
  0.147499993      -1.51722261E-34
  0.148750007      -2.45307258E-34
  0.150000006      -3.35146618E-34
  0.151250005      -4.06659837E-34
  0.152500004      -4.42643464E-34
  0.153750002      -4.24618819E-34
  0.155000001      -3.34887458E-34
  0.156250000      -1.59314221E-34
  0.157499999       1.09129578E-34
  0.158749998       4.66229345E-34
  0.159999996       8.92160907E-34
  0.161249995       1.34752327E-33
  0.162499994       1.77075202E-33
  0.163749993       2.07821285E-33
  0.165000007       2.16844086E-33
  0.166250005       1.93194701E-33
  0.167500004       1.26761252E-33
  0.168750003       1.05680707E-34
  0.170000002      -1.56408523E-33
  0.171250001      -3.66242824E-33
  0.172499999      -5.99436732E-33
  0.173749998      -8.23415793E-33
  0.174999997      -9.93009138E-33
  0.176249996      -1.05374612E-32
  0.177499995      -9.48562522E-33
  0.178749993      -6.28032910E-33
  0.180000007      -6.35023492E-34
  0.181250006       7.38412050E-33
  0.182500005       1.72244820E-32
  0.183750004       2.77576563E-32
  0.185000002       3.72717902E-32
  0.186250001       4.35802658E-32
  0.187500000       4.42703603E-32
  0.188749999       3.70945551E-32
  0.189999998       2.04777405E-32
  0.191249996      -5.92140990E-33
  0.192499995      -4.06912915E-32
  0.193749994      -8.03129773E-32
  0.194999993      -1.19103062E-31
  0.196250007      -1.49569948E-31
  0.197500005      -1.63254113E-31
  0.198750004      -1.52044963E-31
  0.200000003      -1.09865757E-31
  0.201250002      -3.45046471E-32
  0.202500001       7.07316991E-32
  0.203749999       1.95932880E-31
  0.204999998       3.24462654E-31
  0.206249997       4.34117916E-31
  0.207499996       4.99717883E-31
  0.208749995       4.97021957E-31
  0.209999993       4.07571492E-31
  0.211250007       2.23744253E-31
  0.212500006      -4.69307245E-32
  0.213750005      -3.79262156E-31
  0.215000004      -7.30665706E-31
  0.216250002      -1.04486843E-30
  0.217500001      -1.25916717E-30
  0.218750000      -1.31464335E-30
  0.219999999      -1.16796808E-30
  0.221249998      -8.02772270E-31
  0.222499996      -2.38152428E-31
  0.223749995       4.68074421E-31
  0.224999994       1.22316751E-30
  0.226249993       1.91099891E-30
  0.227500007       2.41046420E-30
  0.228750005       2.61816315E-30
  0.230000004       2.47120247E-30
  0.231250003       1.96500150E-30
  0.232500002       1.16100351E-30
  0.233750001       1.80439182E-31
  0.234999999      -8.17225020E-31
  0.236249998      -1.66900544E-30
  0.237499997      -2.25026689E-30
  0.238749996      -2.51428236E-30
  0.239999995      -2.51804676E-30
  0.241249993      -2.42331433E-30
  0.242500007      -2.46518469E-30
  0.243750006      -2.88699024E-30
  0.245000005      -3.84901200E-30
  0.246250004      -5.32811340E-30
  0.247500002      -7.03381063E-30
  0.248750001      -8.37070167E-30
  0.250000000      -8.47567162E-30
  0.251249999      -6.34874155E-30
  0.252499998      -1.07920350E-30
  0.253749996       7.85518213E-30
  0.254999995       2.02643565E-29
  0.256249994       3.49695885E-29
  0.257499993       4.96604166E-29
  0.258749992       6.09696818E-29
  0.259999990       6.48288783E-29
  0.261249989       5.71222576E-29
  0.262499988       3.45959641E-29
  0.263749987      -4.09424344E-30
  0.264999986      -5.73828841E-29
  0.266250014      -1.20078133E-28
  0.267500013      -1.83177725E-28
  0.268750012      -2.34429032E-28
  0.270000011      -2.59750990E-28
  0.271250010      -2.45487794E-28
  0.272500008      -1.81278782E-28
  0.273750007      -6.31388266E-29
  0.275000006       1.03818686E-28
  0.276250005       3.03670330E-28
  0.277500004       5.09610934E-28
  0.278750002       6.85990054E-28
  0.280000001       7.92620802E-28
  0.281250000       7.91118432E-28
  0.282499999       6.52551095E-28
  0.283749998       3.65251699E-28
  0.284999996      -5.86832780E-29
  0.286249995      -5.79774825E-28
  0.287499994      -1.13180114E-27
  0.288749993      -1.62756103E-27
  0.289999992      -1.96982285E-27
  0.291249990      -2.06653458E-27
  0.292499989      -1.84833962E-27
  0.293749988      -1.28558665E-27
  0.294999987      -4.01529743E-28
  0.296249986       7.21506898E-28
  0.297500014       1.94551338E-27
  0.298750013       3.09088260E-27
  0.300000012       3.96049697E-27
  0.301250011       4.37106364E-27
  0.302500010       4.18701022E-27
  0.303750008       3.35100871E-27
  0.305000007       1.90476802E-27
  0.306250006      -5.30851142E-30
  0.307500005      -2.14093537E-27
  0.308750004      -4.20333440E-27
  0.310000002      -5.87958409E-27
  0.311250001      -6.89669273E-27
  0.312500000      -7.07345150E-27
  0.313749999      -6.35912794E-27
  0.314999998      -4.84922967E-27
  0.316249996      -2.77213657E-27
  0.317499995      -4.45932467E-28
  0.318749994       1.78850714E-27
  0.319999993       3.64562053E-27
  0.321249992       4.96699143E-27
  0.322499990       5.76772762E-27
  0.323749989       6.24073255E-27
  0.324999988       6.70917726E-27
  0.326249987       7.52846015E-27
  0.327499986       8.95197121E-27
  0.328750014       1.09879087E-26
  0.330000013       1.32837089E-26
  0.331250012       1.50775308E-26
  0.332500011       1.52505610E-26
  0.333750010       1.24986968E-26
  0.335000008       5.61832553E-27
  0.336250007      -6.12774517E-27
  0.337500006      -2.26268157E-26
  0.338750005      -4.26002238E-26
  0.340000004      -6.34485880E-26
  0.341250002      -8.13428006E-26
  0.342500001      -9.16154397E-26
  0.343750000      -8.94567835E-26
  0.344999999      -7.08561952E-26
  0.346249998      -3.36626084E-26
  0.347499996       2.14213946E-26
  0.348749995       9.01295894E-26
  0.349999994       1.64424029E-25
  0.351249993       2.32958046E-25
  0.352499992       2.82289733E-25
  0.353749990       2.98796229E-25
  0.354999989       2.71092617E-25
  0.356249988       1.92617129E-25
  0.357499987       6.39383473E-26
  0.358749986      -1.05703627E-25
  0.360000014      -2.98068702E-25
  0.361250013      -4.87116038E-25
  0.362500012      -6.41822360E-25
  0.363750011      -7.30435451E-25
  0.365000010      -7.25676992E-25
  0.366250008      -6.10149841E-25
  0.367500007      -3.81031108E-25
  0.368750006      -5.31025355E-26
  0.370000005       3.40691325E-25
  0.371250004       7.51658176E-25
  0.372500002       1.12079257E-24
  0.373750001       1.38674233E-24
  0.375000000       1.49530231E-24
  0.376249999       1.40900349E-24
  0.377499998       1.11516286E-24
  0.378749996       6.30806460E-25
  0.379999995       3.25088616E-27
  0.381249994      -6.94256465E-25
  0.382499993      -1.37160034E-24
  0.383749992      -1.93445674E-24
  0.384999990      -2.29866002E-24
  0.386249989      -2.40388302E-24
  0.387499988      -2.22413514E-24
  0.388749987      -1.77294556E-24
  0.389999986      -1.10193012E-24
  0.391250014      -2.92614715E-25
  0.392500013       5.57274073E-25
  0.393750012       1.35061980E-24
  0.395000011       2.00753662E-24
  0.396250010       2.47823671E-24
  0.397500008       2.74908461E-24
  0.398750007       2.83998031E-24
  0.400000006       2.79301824E-24
  0.401250005       2.65445916E-24
  0.402500004       2.45394078E-24
  0.403750002       2.18624694E-24
  0.405000001       1.80122602E-24
  0.406250000       1.20657814E-24
  0.407499999       2.85984511E-25
  0.408749998      -1.06812871E-24
  0.409999996      -2.91171893E-24
  0.411249995      -5.20414774E-24
  0.412499994      -7.77166752E-24
  0.413749993      -1.02906321E-23
  0.414999992      -1.23001646E-23
  0.416249990      -1.32498860E-23
  0.417499989      -1.25823180E-23
  0.418749988      -9.84193436E-24
  0.419999987      -4.79568621E-24
  0.421249986       2.45637994E-24
  0.422500014       1.14044659E-23
  0.423750013       2.11093041E-23
  0.425000012       3.02563309E-23
  0.426250011       3.72902849E-23
  0.427500010       4.06229729E-23
  0.428750008       3.88921458E-23
  0.430000007       3.12356575E-23
  0.431250006       1.75356175E-23
  0.432500005      -1.41548596E-24
  0.433750004      -2.38692586E-23
  0.435000002      -4.72252717E-23
  0.436250001      -6.82912405E-23
  0.437500000      -8.36810522E-23
  0.438749999      -9.03050351E-23
  0.439999998      -8.58849781E-23
  0.441249996      -6.94124706E-23
  0.442499995      -4.14685308E-23
  0.443749994      -4.33473940E-24
  0.444999993       3.81456783E-23
  0.446249992       8.09625933E-23
  0.447499990       1.18551317E-22
  0.448749989       1.45545039E-22
  0.449999988       1.57558242E-22
  0.451249987       1.51877636E-22
  0.452499986       1.27942573E-22
  0.453750014       8.75246412E-23
  0.455000013       3.45618043E-23
  0.456250012      -2.53407161E-23
  0.457500011      -8.56699914E-23
  0.458750010      -1.39903623E-22
  0.460000008      -1.82393590E-22
  0.461250007      -2.09079555E-22
  0.462500006      -2.17903324E-22
  0.463750005      -2.08850369E-22
  0.465000004      -1.83619985E-22
  0.466250002      -1.45003603E-22
  0.467500001      -9.61209279E-23
  0.468750000      -3.97065753E-23
  0.469999999       2.23583296E-23
  0.471249998       8.91151741E-23
  0.472499996       1.60126659E-22
  0.473749995       2.34647396E-22
  0.474999994       3.10529655E-22
  0.476249993       3.83132298E-22
  0.477499992       4.44562525E-22
  0.478749990       4.83580267E-22
  0.479999989       4.86414058E-22
  0.481249988       4.38590356E-22
  0.482499987       3.27670934E-22
  0.483749986       1.46567870E-22
  0.485000014      -1.03105250E-22
  0.486250013      -4.08319882E-22
  0.487500012      -7.43274590E-22
  0.488750011      -1.06999427E-21
  0.490000010      -1.34126993E-21
  0.491250008      -1.50593320E-21
  0.492500007      -1.51606858E-21
  0.493750006      -1.33530145E-21
  0.495000005      -9.46963171E-22
  0.496250004      -3.60733622E-22
  0.497500002       3.83629445E-22
  0.498750001       1.21660032E-21
  0.500000000       2.04385909E-21
  0.501250029       2.75588287E-21
  0.502499998       3.24133025E-21
  0.503750026       3.40266359E-21
  0.504999995       3.17188000E-21
  0.506250024       2.52394979E-21
  0.507499993       1.48561436E-21
  0.508750021       1.37706766E-22
  0.509999990      -1.39004360E-21
  0.511250019      -2.93165411E-21
  0.512499988      -4.30373349E-21
  0.513750017      -5.32824918E-21
  0.514999986      -5.85607644E-21
  0.516250014      -5.78795763E-21
  0.517499983      -5.08963221E-21
  0.518750012      -3.79867469E-21
  0.519999981      -2.02182410E-21
  0.521250010       7.69743019E-23
  0.522499979       2.29610939E-21
  0.523750007       4.42041482E-21
  0.524999976       6.24613007E-21
  0.526250005       7.60284642E-21
  0.527499974       8.36919210E-21
  0.528750002       8.48022252E-21
  0.529999971       7.92612379E-21
  0.531250000       6.74359277E-21
  0.532500029       5.00279238E-21
  0.533749998       2.79365914E-21
  0.535000026       2.15473254E-22
  0.536249995      -2.62724679E-21
  0.537500024      -5.62108202E-21
  0.538749993      -8.63312896E-21
  0.540000021      -1.14966424E-20
  0.541249990      -1.39979348E-20
  0.542500019      -1.58707396E-20
  0.543749988      -1.68038979E-20
  0.545000017      -1.64664130E-20
  0.546249986      -1.45510650E-20
  0.547500014      -1.08334682E-20
  0.548749983      -5.23934665E-21
  0.550000012       2.09117721E-21
  0.551249981       1.07555718E-20
  0.552500010       2.00708881E-20
  0.553749979       2.90967566E-20
  0.555000007       3.67058036E-20
  0.556249976       4.17001328E-20
  0.557500005       4.29649049E-20
  0.558749974       3.96415161E-20
  0.560000002       3.12964980E-20
  0.561249971       1.80589732E-20
  0.562500000       7.00040317E-22
  0.563750029      -1.93671642E-20
  0.564999998      -4.01784985E-20
  0.566250026      -5.94002534E-20
  0.567499995      -7.45854994E-20
  0.568750024      -8.34774583E-20
  0.569999993      -8.43206397E-20
  0.571250021      -7.61361528E-20
  0.572499990      -5.89184013E-20
  0.573750019      -3.37188738E-20
  0.574999988      -2.59674895E-21
  0.576250017       3.15653059E-20
  0.577499986       6.53613692E-20
  0.578750014       9.52424481E-20
  0.579999983       1.17925673E-19
  0.581250012       1.30777126E-19
  0.582499981       1.32114871E-19
  0.583750010       1.21390513E-19
  0.584999979       9.92266476E-20
  0.586250007       6.73109758E-20
  0.587499976       2.81696551E-20
  0.588750005      -1.51373438E-20
  0.589999974      -5.93450843E-20
  0.591250002      -1.01282295E-19
  0.592499971      -1.38094637E-19
  0.593750000      -1.67366891E-19
  0.595000029      -1.87142311E-19
  0.596249998      -1.95865086E-19
  0.597500026      -1.92290657E-19
  0.598749995      -1.75422286E-19
  0.600000024      -1.44527594E-19
  0.601249993      -9.92756128E-20
  0.602500021      -4.00019342E-20
  0.603749990       3.19249970E-20
  0.605000019       1.13704531E-19
  0.606249988       2.00768173E-19
  0.607500017       2.86623200E-19
  0.608749986       3.62982207E-19
  0.610000014       4.20258881E-19
  0.611249983       4.48453488E-19
  0.612500012       4.38385045E-19
  0.613749981       3.83151223E-19
  0.615000010       2.79624503E-19
  0.616249979       1.29752171E-19
  0.617500007      -5.85937587E-20
  0.618749976      -2.71439938E-19
  0.620000005      -4.89364962E-19
  0.621249974      -6.89032093E-19
  0.622500002      -8.45520964E-19
  0.623749971      -9.35241730E-19
  0.625000000      -9.39097839E-19
  0.626250029      -8.45478778E-19
  0.627499998      -6.52639816E-19
  0.628750026      -3.70066932E-19
  0.629999995      -1.85314581E-20
  0.631250024       3.71303308E-19
  0.632499993       7.61656069E-19
  0.633750021       1.11151919E-18
  0.634999990       1.38122350E-18
  0.636250019       1.53710796E-18
  0.637499988       1.55568054E-18
  0.638750017       1.42671078E-18
  0.639999986       1.15480669E-18
  0.641250014       7.59260347E-19
  0.642499983       2.72159069E-19
  0.643750012      -2.64969137E-19
  0.644999981      -8.05518562E-19
  0.646250010      -1.30257082E-18
  0.647499979      -1.71342864E-18
  0.648750007      -2.00334666E-18
  0.649999976      -2.14804350E-18
  0.651250005      -2.13482288E-18
  0.652499974      -1.96235303E-18
  0.653750002      -1.63942793E-18
  0.654999971      -1.18313070E-18
  0.656250000      -6.16940821E-19
  0.657500029       3.07772192E-20
  0.658749998       7.27614898E-19
  0.660000026       1.43725072E-18
  0.661249995       2.11910728E-18
  0.662500024       2.72801209E-18
  0.663749993       3.21448549E-18
  0.665000021       3.52629535E-18
  0.666249990       3.61174642E-18
  0.667500019       3.42488570E-18
  0.668749988       2.93236561E-18
  0.670000017       2.12123210E-18
  0.671249986       1.00649796E-18
  0.672500014      -3.62938496E-19
  0.673749983      -1.90153644E-18
  0.675000012      -3.48880256E-18
  0.676249981      -4.97625198E-18
  0.677500010      -6.19974102E-18
  0.678749979      -6.99640198E-18
  0.680000007      -7.22453922E-18
  0.681249976      -6.78412882E-18
  0.682500005      -5.63506370E-18
  0.683749974      -3.81024578E-18
  0.685000002      -1.42100220E-18
  0.686249971       1.34688899E-18
  0.687500000       4.24706993E-18
  0.688750029       6.99551690E-18
  0.689999998       9.30028197E-18
  0.691250026       1.08945973E-17
  0.692499995       1.15692500E-17
  0.693750024       1.11998443E-17
  0.694999993       9.76513431E-18
  0.696250021       7.35355458E-18
  0.697499990       4.15676538E-18
  0.698750019       4.50676277E-19
  0.699999988      -3.43372578E-18
  0.701250017      -7.14593142E-18
  0.702499986      -1.03532109E-17
  0.703750014      -1.27746614E-17
  0.704999983      -1.42076625E-17
  0.706250012      -1.45436483E-17
  0.707499981      -1.37717085E-17
  0.708750010      -1.19706724E-17
  0.709999979      -9.29196797E-18
  0.711250007      -5.93696394E-18
  0.712499976      -2.13316480E-18
  0.713750005       1.88656406E-18
  0.714999974       5.89861999E-18
  0.716250002       9.69556511E-18
  0.717499971       1.30857706E-17
  0.718750000       1.58881097E-17
  0.720000029       1.79255101E-17
  0.721249998       1.90216584E-17
  0.722500026       1.90049527E-17
  0.723749995       1.77222454E-17
  0.725000024       1.50627340E-17
  0.726249993       1.09896892E-17
  0.727500021       5.57508359E-18
  0.728749990      -9.69913109E-19
  0.730000019      -8.27642262E-18
  0.731249988      -1.58186679E-17
  0.732500017      -2.29394075E-17
  0.733749986      -2.89016807E-17
  0.735000014      -3.29642360E-17
  0.736249983      -3.44733840E-17
  0.737500012      -3.29597725E-17
  0.738749981      -2.82261355E-17
  0.740000010      -2.04111382E-17
  0.741249979      -1.00163003E-17
  0.742500007       2.11292865E-18
  0.743749976       1.48549578E-17
  0.745000005       2.69243071E-17
  0.746249974       3.70169114E-17
  0.747500002       4.39705556E-17
  0.748749971       4.69191170E-17
  0.750000000       4.54176982E-17
  0.751250029       3.95190732E-17
  0.752499998       2.97871643E-17
  0.753750026       1.72422225E-17
  0.754999995       3.24193506E-18
  0.756250024      -1.06871379E-17
  0.757499993      -2.30455083E-17
  0.758750021      -3.25564227E-17
  0.759999990      -3.83326183E-17
  0.761250019      -3.99891831E-17
  0.762499988      -3.76843734E-17
  0.763750017      -3.20818229E-17
  0.764999986      -2.42383457E-17
  0.766250014      -1.54345550E-17
  0.767499983      -6.97375460E-18
  0.768750012       1.94429094E-20
  0.769999981       4.76900973E-18
  0.771250010       6.95886204E-18
  0.772499979       6.76787349E-18
  0.773750007       4.82290717E-18
  0.774999976       2.07787853E-18
  0.776250005      -3.61193481E-19
  0.777499974      -1.43601512E-18
  0.778750002      -3.27202200E-19
  0.779999971       3.39456581E-18
  0.781250000       9.68275208E-18
  0.782500029       1.80077153E-17
  0.783749998       2.74284968E-17
  0.785000026       3.67295787E-17
  0.786249995       4.45982666E-17
  0.787500024       4.98116419E-17
  0.788749993       5.14008279E-17
  0.790000021       4.87664396E-17
  0.791249990       4.17288366E-17
  0.792500019       3.05103021E-17
  0.793749988       1.56605440E-17
  0.795000017      -2.05161016E-18
  0.796249986      -2.17513677E-17
  0.797500014      -4.25453003E-17
  0.798749983      -6.35608759E-17
  0.800000012      -8.39269229E-17
  0.801249981      -1.02701104E-16
  0.802500010      -1.18766804E-16
  0.803749979      -1.30735181E-16
  0.805000007      -1.36896194E-16
  0.806249976      -1.35257199E-16
  0.807500005      -1.23699739E-16
  0.808749974      -1.00262959E-16
  0.810000002      -6.35334334E-17
  0.811249971      -1.30980303E-17
  0.812500000       5.00125971E-17
  0.813750029       1.22974136E-16
  0.814999998       2.01001421E-16
  0.816250026       2.77436086E-16
  0.817499995       3.44137575E-16
  0.818750024       3.92178187E-16
  0.819999993       4.12802380E-16
  0.821250021       3.98554492E-16
  0.822499990       3.44443619E-16
  0.823750019       2.48989438E-16
  0.824999988       1.14982526E-16
  0.826250017      -5.01753598E-17
  0.827499986      -2.34658567E-16
  0.828750014      -4.22963149E-16
  0.829999983      -5.97179351E-16
  0.831250012      -7.38684198E-16
  0.832499981      -8.30080112E-16
  0.833750010      -8.57166267E-16
  0.834999979      -8.10709792E-16
  0.836250007      -6.87797582E-16
  0.837499976      -4.92591534E-16
  0.838750005      -2.36377276E-16
  0.839999974       6.31177321E-17
  0.841250002       3.83083647E-16
  0.842499971       6.97522421E-16
  0.843750000       9.79483489E-16
  0.845000029       1.20341242E-15
  0.846249998       1.34737478E-15
  0.847500026       1.39495834E-15
  0.848749995       1.33668787E-15
  0.850000024       1.17086444E-15
  0.851249993       9.03801942E-16
  0.852500021       5.49488749E-16
  0.853749990       1.28760337E-16
  0.855000019      -3.31928098E-16
  0.856249988      -8.02017222E-16
  0.857500017      -1.24856701E-15
  0.858749986      -1.63811598E-15
  0.860000014      -1.93863692E-15
  0.861249983      -2.12155919E-15
  0.862500012      -2.16381703E-15
  0.863749981      -2.04987034E-15
  0.865000010      -1.77359128E-15
  0.866249979      -1.33986763E-15
  0.867500007      -7.65722231E-16
  0.868749976      -8.07207642E-17
  0.870000005       6.73556841E-16