 -0.200000003       0.00000000    
 -0.198750004       0.00000000    
 -0.197500005       0.00000000    
 -0.196250007       0.00000000    
 -0.194999993       0.00000000    
 -0.193749994       0.00000000    
 -0.192499995       0.00000000    
 -0.191249996       0.00000000    
 -0.189999998       0.00000000    
 -0.188749999       0.00000000    
 -0.187500000       0.00000000    
 -0.186250001       0.00000000    
 -0.185000002       0.00000000    
 -0.183750004       0.00000000    
 -0.182500005       0.00000000    
 -0.181250006       0.00000000    
 -0.180000007       0.00000000    
 -0.178749993       0.00000000    
 -0.177499995       0.00000000    
 -0.176249996       0.00000000    
 -0.174999997       0.00000000    
 -0.173749998       0.00000000    
 -0.172499999       0.00000000    
 -0.171250001       0.00000000    
 -0.170000002       0.00000000    
 -0.168750003       0.00000000    
 -0.167500004       0.00000000    
 -0.166250005       0.00000000    
 -0.165000007       0.00000000    
 -0.163749993       0.00000000    
 -0.162499994       0.00000000    
 -0.161249995       0.00000000    
 -0.159999996       0.00000000    
 -0.158749998       0.00000000    
 -0.157499999       0.00000000    
 -0.156250000       0.00000000    
 -0.155000001       0.00000000    
 -0.153750002       0.00000000    
 -0.152500004       0.00000000    
 -0.151250005       0.00000000    
 -0.150000006       0.00000000    
 -0.148750007       0.00000000    
 -0.147499993       0.00000000    
 -0.146249995       0.00000000    
 -0.144999996       0.00000000    
 -0.143749997       0.00000000    
 -0.142499998       0.00000000    
 -0.141249999       0.00000000    
 -0.140000001       0.00000000    
 -0.138750002       0.00000000    
 -0.137500003       0.00000000    
 -0.136250004       0.00000000    
 -0.135000005       0.00000000    
 -0.133750007       0.00000000    
 -0.132499993       0.00000000    
 -0.131249994       0.00000000    
 -0.129999995       0.00000000    
 -0.128749996       0.00000000    
 -0.127499998       0.00000000    
 -0.126249999       0.00000000    
 -0.125000000       0.00000000    
 -0.123750001       0.00000000    
 -0.122500002       0.00000000    
 -0.121250004       0.00000000    
 -0.119999997       0.00000000    
 -0.118749999       0.00000000    
 -0.117500000       0.00000000    
 -0.116250001       0.00000000    
 -0.115000002       0.00000000    
 -0.113750003       0.00000000    
 -0.112499997       0.00000000    
 -0.111249998       0.00000000    
 -0.109999999       0.00000000    
 -0.108750001       0.00000000    
 -0.107500002       0.00000000    
 -0.106250003       0.00000000    
 -0.104999997       0.00000000    
 -0.103749998       1.40129846E-45
 -0.102499999       4.20389539E-45
 -0.101250000       7.00649232E-45
 -0.100000001       7.00649232E-45
  -9.87500027E-02   2.80259693E-45
  -9.74999964E-02  -7.00649232E-45
  -9.62499976E-02  -2.52233724E-44
  -9.49999988E-02  -5.74532370E-44
  -9.37500000E-02  -9.94921910E-44
  -9.25000012E-02  -1.44333742E-43
  -9.12500024E-02  -1.73761010E-43
  -9.00000036E-02  -1.49938936E-43
  -8.87499973E-02  -2.52233724E-44
  -8.74999985E-02   2.64845410E-43
  -8.62499997E-02   7.73516752E-43
  -8.50000009E-02   1.51340234E-42
  -8.37500021E-02   2.41023336E-42
  -8.25000033E-02   3.23559815E-42
  -8.12499970E-02   3.54528511E-42
  -7.99999982E-02   2.65966449E-42
  -7.87499994E-02  -2.84463588E-43
  -7.75000006E-02  -6.15730545E-42
  -7.62500018E-02  -1.54675324E-41
  -7.50000030E-02  -2.78045641E-41
  -7.37499967E-02  -4.11253073E-41
  -7.24999979E-02  -5.10324875E-41
  -7.12499991E-02  -5.03514564E-41
  -7.00000003E-02  -2.94118535E-41
  -6.87500015E-02   2.24291832E-41
  -6.75000027E-02   1.13512182E-40
  -6.62499964E-02   2.44644291E-40
  -6.49999976E-02   4.02209093E-40
  -6.37499988E-02   5.50875650E-40
  -6.25000000E-02   6.28281976E-40
  -6.12500012E-02   5.45353132E-40
  -5.99999987E-02   1.96679246E-40
  -5.87499999E-02  -5.14727755E-40
  -5.75000010E-02  -1.63588844E-39
  -5.62499985E-02  -3.10727705E-39
  -5.49999997E-02  -4.69976167E-39
  -5.37500009E-02  -5.96234700E-39
  -5.24999984E-02  -6.20720989E-39
  -5.12499996E-02  -4.56507447E-39
  -5.00000007E-02  -1.43825070E-40
  -4.87499982E-02   7.68846365E-39
  -4.74999994E-02   1.89021304E-38
  -4.62500006E-02   3.23365483E-38
  -4.50000018E-02   4.52710797E-38
  -4.37499993E-02   5.32061704E-38
  -4.25000004E-02   5.00708100E-38
  -4.12500016E-02   2.90790199E-38
  -3.99999991E-02  -1.56045864E-38
  -3.87500003E-02  -8.63854989E-38
  -3.75000015E-02  -1.79199113E-37
  -3.62499990E-02  -2.80504012E-37
  -3.50000001E-02  -3.65271471E-37
  -3.37500013E-02  -3.97229013E-37
  -3.24999988E-02  -3.32697941E-37
  -3.12500000E-02  -1.29081180E-37
  -2.99999993E-02   2.41726945E-37
  -2.87500005E-02   7.76073887E-37
  -2.74999999E-02   1.42029397E-36
  -2.62499992E-02   2.05632572E-36
  -2.50000004E-02   2.49773878E-36
  -2.37499997E-02   2.50338863E-36
  -2.25000009E-02   1.81482940E-36
  -2.12500002E-02   2.20104304E-37
  -1.99999996E-02  -2.35970787E-36
  -1.87500007E-02  -5.77341891E-36
  -1.75000001E-02  -9.55408575E-36
  -1.62499994E-02  -1.28753595E-35
  -1.49999997E-02  -1.45847682E-35
  -1.37499999E-02  -1.33455587E-35
  -1.25000002E-02  -7.90464921E-36
  -1.12500004E-02   2.52211321E-36
  -9.99999978E-03   1.77934675E-35
  -8.75000004E-03   3.64044086E-35
  -7.49999983E-03   5.51952913E-35
  -6.25000009E-03   6.93614619E-35
  -4.99999989E-03   7.29095435E-35
  -3.74999992E-03   5.96557930E-35
  -2.49999994E-03   2.47607066E-35
  -1.24999997E-03  -3.33540754E-35
   0.00000000      -1.11036496E-34
   1.24999997E-03  -1.97881525E-34
   2.49999994E-03  -2.76266772E-34
   3.74999992E-03  -3.22557280E-34
   4.99999989E-03  -3.10425765E-34
   6.25000009E-03  -2.16376299E-34
   7.49999983E-03  -2.70171592E-35
   8.75000004E-03   2.53033057E-34
   9.99999978E-03   5.94380178E-34
   1.12500004E-02   9.39479146E-34
   1.25000002E-02   1.20498888E-33
   1.37499999E-02   1.29171144E-33
   1.49999997E-02   1.10279361E-33
   1.62499994E-02   5.69019255E-34
   1.75000001E-02  -3.22300026E-34
   1.87500007E-02  -1.50070616E-33
   1.99999996E-02  -2.79595923E-33
   2.12500002E-02  -3.93970458E-33
   2.25000009E-02  -4.59246945E-33
   2.37499997E-02  -4.39940883E-33
   2.50000004E-02  -3.07227718E-33
   2.62499992E-02  -4.87450783E-34
   2.74999999E-02   3.21828680E-33
   2.87500005E-02   7.57911444E-33
   2.99999993E-02   1.17865445E-32
   3.12500000E-02   1.47556735E-32
   3.24999988E-02   1.52857744E-32
   3.37500013E-02   1.23116738E-32
   3.50000001E-02   5.21832873E-33
   3.62499990E-02  -5.83523551E-33
   3.75000015E-02  -1.96592158E-32
   3.87500003E-02  -3.39323695E-32
   3.99999991E-02  -4.53410447E-32
   4.12500016E-02  -5.00137111E-32
   4.25000004E-02  -4.42550701E-32
   4.37499993E-02  -2.55118479E-32
   4.50000018E-02   6.57891789E-33
   4.62500006E-02   4.92831649E-32
   4.74999994E-02   9.62758614E-32
   4.87499982E-02   1.37829593E-31
   5.00000007E-02   1.61888459E-31
   5.12499996E-02   1.56090556E-31
   5.24999984E-02   1.10598090E-31
   5.37500009E-02   2.13527035E-32
   5.49999997E-02  -1.06862311E-31
   5.62499985E-02  -2.58342108E-31
   5.75000010E-02  -4.06195646E-31
   5.87499999E-02  -5.14593388E-31
   5.99999987E-02  -5.43878620E-31
   6.12500012E-02  -4.58349980E-31
   6.25000000E-02  -2.35840889E-31
   6.37499988E-02   1.22485512E-31
   6.49999976E-02   5.84287272E-31
   6.62499964E-02   1.08257622E-30
   6.75000027E-02   1.51887929E-30
   6.87500015E-02   1.77451555E-30
   7.00000003E-02   1.73013622E-30
   7.12499991E-02   1.29187497E-30
   7.24999979E-02   4.20446635E-31
   7.37499967E-02  -8.42277531E-31
   7.50000030E-02  -2.35587180E-30
   7.62500018E-02  -3.87985132E-30
   7.75000006E-02  -5.09338204E-30
   7.87499994E-02  -5.63854585E-30
   7.99999982E-02  -5.18508489E-30
   8.12499970E-02  -3.50927005E-30
   8.25000033E-02  -5.74255839E-31
   8.37500021E-02   3.40482221E-30
   8.50000009E-02   7.92947262E-30
   8.62499997E-02   1.22369052E-29
   8.74999985E-02   1.53803772E-29
   8.87499973E-02   1.63718159E-29
   9.00000036E-02   1.43747800E-29
   9.12500024E-02   8.92169367E-30
   9.25000012E-02   1.16727377E-31
   9.37500000E-02  -1.12223193E-29
   9.49999988E-02  -2.35301213E-29
   9.62499976E-02  -3.46054734E-29
   9.74999964E-02  -4.18860092E-29
   9.87500027E-02  -4.28742399E-29
  0.100000001      -3.56682105E-29
  0.101250000      -1.95152014E-29
  0.102499999       4.72044527E-30
  0.103749998       3.42963466E-29
  0.104999997       6.46490386E-29
  0.106250003       8.98440421E-29
  0.107500002       1.03432694E-28
  0.108750001       9.96484639E-29
  0.109999999       7.47857917E-29
  0.111249998       2.85239493E-29
  0.112499997      -3.50956015E-29
  0.113750003      -1.07337228E-28
  0.115000002      -1.75330836E-28
  0.116250001      -2.23651335E-28
  0.117500000      -2.36868342E-28
  0.118749999      -2.02801073E-28
  0.119999997      -1.15992610E-28
  0.121250004       1.92616843E-29
  0.122500002       1.87089698E-28
  0.123750001       3.60140233E-28
  0.125000000       5.02122822E-28
  0.126249999       5.72949040E-28
  0.127499998       5.36141389E-28
  0.128749996       3.67614021E-28
  0.129999995       6.43957066E-29
  0.131249994      -3.48525407E-28
  0.132499993      -8.15182686E-28
  0.133750007      -1.25115314E-27
  0.135000005      -1.55269223E-27
  0.136250004      -1.61251200E-27
  0.137500003      -1.34090282E-27
  0.138750002      -6.89453116E-28
  0.140000001       3.26664080E-28
  0.141249999       1.61271615E-27
  0.142499998       2.98973256E-27
  0.143749997       4.20526303E-27
  0.144999996       4.96181915E-27
  0.146249995       4.96240849E-27
  0.147499993       3.96906890E-27
  0.148750007       1.86667081E-27
  0.150000006      -1.27887122E-27
  0.151250005      -5.18070533E-27
  0.152500004      -9.32212493E-27
  0.153750002      -1.29887889E-26
  0.155000001      -1.53471595E-26
  0.156250000      -1.55669019E-26
  0.157499999      -1.29761487E-26
  0.158749998      -7.22954427E-27
  0.159999996       1.53857083E-27
  0.161249995       1.26078323E-26
  0.162499994       2.46439176E-26
  0.163749993       3.57741857E-26
  0.165000007       4.37795924E-26
  0.166250005       4.63977632E-26
  0.167500004       4.17108570E-26
  0.168750003       2.85704188E-26
  0.170000002       6.99322727E-27
  0.171250001      -2.15483134E-26
  0.172499999      -5.40172443E-26
  0.173749998      -8.59465250E-26
  0.174999997      -1.11850887E-25
  0.176249996      -1.25909608E-25
  0.177499995      -1.22865912E-25
  0.178749993      -9.90391016E-26
  0.180000007      -5.33037504E-26
  0.181250006       1.21361751E-26
  0.182500005       9.13528477E-26
  0.183750004       1.74827785E-25
  0.185000002       2.50203728E-25
  0.186250001       3.03662391E-25
  0.187500000       3.21832841E-25
  0.188749999       2.94029192E-25
  0.189999998       2.14521084E-25
  0.191249996       8.44772531E-26
  0.192499995      -8.67957215E-26
  0.193749994      -2.81655686E-25
  0.194999993      -4.75202019E-25
  0.196250007      -6.37701006E-25
  0.197500005      -7.38231862E-25
  0.198750004      -7.49210242E-25
  0.200000003      -6.51244268E-25
  0.201250002      -4.37630004E-25
  0.202500001      -1.17727444E-25
  0.203749999       2.81499886E-25
  0.204999998       7.16337175E-25
  0.206249997       1.12984366E-24
  0.207499996       1.45797036E-24
  0.208749995       1.63778134E-24
  0.209999993       1.61689299E-24
  0.211250007       1.36291972E-24
  0.212500006       8.71525837E-25
  0.213750005       1.71674794E-25
  0.215000004      -6.73132989E-25
  0.216250002      -1.56842794E-24
  0.217500001      -2.39735263E-24
  0.218750000      -3.03375867E-24
  0.219999999      -3.35859621E-24
  0.221249998      -3.27772258E-24
  0.222499996      -2.73879175E-24
  0.223749995      -1.74470118E-24
  0.224999994      -3.61221529E-25
  0.226249993       1.28305495E-24
  0.227500007       3.00546972E-24
  0.228750005       4.58669329E-24
  0.230000004       5.79547787E-24
  0.231250003       6.41831274E-24
  0.232500002       6.29053581E-24
  0.233750001       5.32485410E-24
  0.234999999       3.53307686E-24
  0.236249998       1.03731353E-24
  0.237499997      -1.93214242E-24
  0.238749996      -5.05353802E-24
  0.239999995      -7.94448565E-24
  0.241249993      -1.02044491E-23
  0.242500007      -1.14646236E-23
  0.243750006      -1.14395197E-23
  0.245000005      -9.97369149E-24
  0.246250004      -7.07698951E-24
  0.247500002      -2.94248924E-24
  0.248750001       2.05712580E-24
  0.250000000       7.39663122E-24
  0.251249999       1.24478598E-23
  0.252499998       1.65479273E-23
  0.253749996       1.90793899E-23
  0.254999995       1.95533832E-23
  0.256249994       1.76854726E-23
  0.257499993       1.34537640E-23
  0.258749992       7.12994338E-24
  0.259999990      -7.23664658E-25
  0.261249989      -9.29433789E-24
  0.262499988      -1.75954510E-23
  0.263749987      -2.45734179E-23
  0.264999986      -2.92347087E-23
  0.266250014      -3.07788061E-23
  0.267500013      -2.87205323E-23
  0.268750012      -2.29846679E-23
  0.270000011      -1.39572923E-23
  0.271250010      -2.48215222E-24
  0.272500008       1.02037998E-23
  0.273750007       2.25941612E-23
  0.275000006       3.30864104E-23
  0.276250005       4.01871052E-23
  0.277500004       4.27246246E-23
  0.278750002       4.00408409E-23
  0.280000001       3.21323620E-23
  0.281250000       1.97150650E-23
  0.282499999       4.19312703E-24
  0.283749998      -1.24751189E-23
  0.284999996      -2.80081215E-23
  0.286249995      -4.01073072E-23
  0.287499994      -4.68026505E-23
  0.288749993      -4.67904800E-23
  0.289999992      -3.97105827E-23
  0.291249990      -2.63109283E-23
  0.292499989      -8.45771224E-24
  0.293749988       1.10338914E-23
  0.294999987       2.87486347E-23
  0.296249986       4.11715373E-23
  0.297500014       4.52824871E-23
  0.298750013       3.91630407E-23
  0.300000012       2.25172362E-23
  0.301250011      -2.99498517E-24
  0.302500010      -3.37006427E-23
  0.303750008      -6.41926032E-23
  0.305000007      -8.79600988E-23
  0.306250006      -9.83316633E-23
  0.307500005      -8.96327553E-23
  0.308750004      -5.84066303E-23
  0.310000002      -4.50774409E-24
  0.311250001       6.81387127E-23
  0.312500000       1.51303168E-22
  0.313749999       2.32887769E-22
  0.314999998       2.98095769E-22
  0.316249996       3.31292298E-22
  0.317499995       3.18395697E-22
  0.318749994       2.49523091E-22
  0.319999993       1.21519718E-22
  0.321249992      -6.00509194E-23
  0.322499990      -2.79875909E-22
  0.323749989      -5.13171664E-22
  0.324999988      -7.27486265E-22
  0.326249987      -8.86045640E-22
  0.327499986      -9.52430722E-22
  0.328750014      -8.96130236E-22
  0.330000013      -6.98300178E-22
  0.331250012      -3.56903494E-22
  0.332500011       1.09647160E-22
  0.333750010       6.61158739E-22
  0.335000008       1.23725449E-21
  0.336250007       1.76219197E-21
  0.337500006       2.15277329E-21
  0.338750005       2.32875051E-21
  0.340000004       2.22466631E-21
  0.341250002       1.80168399E-21
  0.342500001       1.05772984E-21
  0.343750000       3.42338780E-23
  0.344999999      -1.18203837E-21
  0.346249998      -2.46311627E-21
  0.347499996      -3.65029998E-21
  0.348749995      -4.57054528E-21
  0.349999994      -5.05741821E-21
  0.351249993      -4.97447276E-21
  0.352499992      -4.23822587E-21
  0.353749990      -2.83756130E-21
  0.354999989      -8.46416904E-22
  0.356249988       1.57293422E-21
  0.357499987       4.17780493E-21
  0.358749986       6.66475979E-21
  0.360000014       8.70007646E-21
  0.361250013       9.95848152E-21
  0.362500012       1.01662169E-20
  0.363750011       9.14339115E-21
  0.365000010       6.84000495E-21
  0.366250008       3.36016739E-21
  0.367500007      -1.03017237E-21
  0.368750006      -5.91507001E-21
  0.370000005      -1.07609752E-20
  0.371250004      -1.49680998E-20
  0.372500002      -1.79365941E-20
  0.373750001      -1.91409610E-20
  0.375000000      -1.82043518E-20
  0.376249999      -1.49634081E-20
  0.377499998      -9.51446970E-21
  0.378749996      -2.23323963E-21
  0.379999995       6.23753434E-21
  0.381249994       1.50344503E-20
  0.382499993       2.31519953E-20
  0.383749992       2.95471823E-20
  0.384999990       3.32603185E-20
  0.386249989       3.35390525E-20
  0.387499988       2.99509692E-20
  0.388749987       2.24700560E-20
  0.389999986       1.15239548E-20
  0.391250014      -2.00764893E-21
  0.392500013      -1.68482070E-20
  0.393750012      -3.14318487E-20
  0.395000011      -4.40557396E-20
  0.396250010      -5.30636621E-20
  0.397500008      -5.70423169E-20
  0.398750007      -5.50086352E-20
  0.400000006      -4.65654379E-20
  0.401250005      -3.20044386E-20
  0.402500004      -1.23399232E-20
  0.403750002       1.07371614E-20
  0.405000001       3.49865314E-20
  0.406250000       5.78199959E-20
  0.407499999       7.65605675E-20
  0.408749998       8.87347985E-20
  0.409999996       9.23681506E-20
  0.411249995       8.62501742E-20
  0.412499994       7.01372710E-20
  0.413749993       4.48648838E-20
  0.414999992       1.23492088E-20
  0.416249990      -2.45309199E-20
  0.417499989      -6.21684391E-20
  0.418749988      -9.65620856E-20
  0.419999987      -1.23720926E-19
  0.421249986      -1.40100265E-19
  0.422500014      -1.43023186E-19
  0.423750013      -1.31040376E-19
  0.425000012      -1.04184044E-19
  0.426250011      -6.40801893E-20
  0.427500010      -1.38964016E-20
  0.428750008       4.18809137E-20
  0.430000007       9.78280467E-20
  0.431250006       1.48093919E-19
  0.432500005       1.86992087E-19
  0.433750004       2.09616343E-19
  0.435000002       2.12414837E-19
  0.436250001       1.93658168E-19
  0.437500000       1.53743821E-19
  0.438749999       9.52941146E-20
  0.439999998       2.30241184E-20
  0.441249996      -5.66202092E-20
  0.442499995      -1.36028327E-19
  0.443749994      -2.07147067E-19
  0.444999993      -2.62289718E-19
  0.446249992      -2.94950583E-19
  0.447499990      -3.00538472E-19
  0.448749989      -2.76947204E-19
  0.449999988      -2.24894666E-19
  0.451249987      -1.47983917E-19
  0.452499986      -5.24682860E-20
  0.453750014       5.32671292E-20
  0.455000013       1.59463232E-19
  0.456250012       2.55912621E-19
  0.457500011       3.32961522E-19
  0.458750010       3.82484851E-19
  0.460000008       3.98732049E-19
  0.461250007       3.78952764E-19
  0.462500006       3.23733108E-19
  0.463750005       2.37003944E-19
  0.465000004       1.25717197E-19
  0.466250002      -7.78074337E-22
  0.467500001      -1.31595673E-19
  0.468750000      -2.55319222E-19
  0.469999999      -3.61051826E-19
  0.471249998      -4.39401857E-19
  0.472499996      -4.83306794E-19
  0.473749995      -4.88619000E-19
  0.474999994      -4.54404225E-19
  0.476249993      -3.82938896E-19
  0.477499992      -2.79424558E-19
  0.478749990      -1.51468144E-19
  0.479999989      -8.39792936E-21
  0.481249988       1.39503532E-19
  0.482499987       2.81768633E-19
  0.483749986       4.08446484E-19
  0.485000014       5.10687248E-19
  0.486250013       5.81183716E-19
  0.487500012       6.14471015E-19
  0.488750011       6.07105333E-19
  0.490000010       5.57757857E-19
  0.491250008       4.67262696E-19
  0.492500007       3.38650664E-19
  0.493750006       1.77183406E-19
  0.495000005      -9.62119781E-21
  0.496250004      -2.12006572E-19
  0.497500002      -4.18094124E-19
  0.498750001      -6.14167026E-19
  0.500000000      -7.85187651E-19
  0.501250029      -9.15597018E-19
  0.502499998      -9.90410231E-19
  0.503750026      -9.96574484E-19
  0.504999995      -9.24499652E-19
  0.506250024      -7.69619337E-19
  0.507499993      -5.33791282E-19
  0.508750021      -2.26324939E-19
  0.509999990       1.35579348E-19
  0.511250019       5.27159619E-19
  0.512499988       9.17306593E-19
  0.513750017       1.27068570E-18
  0.514999986       1.55067817E-18
  0.516250014       1.72293078E-18
  0.517499983       1.75919458E-18
  0.518750012       1.64104858E-18
  0.519999981       1.36305685E-18
  0.521250010       9.34914580E-19
  0.522499979       3.82205859E-19
  0.523750007      -2.54489069E-19
  0.524999976      -9.22227697E-19
  0.526250005      -1.55997485E-18
  0.527499974      -2.10419383E-18
  0.528750002      -2.49525608E-18
  0.529999971      -2.68401828E-18
  0.531250000      -2.63782976E-18
  0.532500029      -2.34523984E-18
  0.533749998      -1.81875737E-18
  0.535000026      -1.09519530E-18
  0.536249995      -2.33377920E-19
  0.537500024       6.90717163E-19
  0.538749993       1.59100002E-18
  0.540000021       2.37982902E-18
  0.541249990       2.97720335E-18
  0.542500019       3.31956782E-18
  0.543749988       3.36719812E-18
  0.545000017       3.10924702E-18
  0.546249986       2.56575151E-18
  0.547500014       1.78624607E-18
  0.548749983       8.45001133E-19
  0.550000012      -1.66675355E-19
  0.551249981      -1.15026371E-18
  0.552500010      -2.01088124E-18
  0.553749979      -2.66788102E-18
  0.555000007      -3.06390925E-18
  0.556249976      -3.17127171E-18
  0.557500005      -2.99476067E-18
  0.558749974      -2.57050594E-18
  0.560000002      -1.96091353E-18
  0.561249971      -1.24625275E-18
  0.562500000      -5.13919663E-19
  0.563750029       1.53261252E-19
  0.564999998       6.88149646E-19
  0.566250026       1.04828723E-18
  0.567499995       1.22147331E-18
  0.568750024       1.22701739E-18
  0.569999993       1.11231908E-18
  0.571250021       9.45055711E-19
  0.572499990       8.01885171E-19
  0.573750019       7.55116379E-19
  0.574999988       8.59179939E-19
  0.576250017       1.13888760E-18
  0.577499986       1.58136543E-18
  0.578750014       2.13317493E-18
  0.579999983       2.70353499E-18
  0.581250012       3.17378179E-18
  0.582499981       3.41234419E-18
  0.583750010       3.29368886E-18
  0.584999979       2.71898589E-18
  0.586250007       1.63580188E-18
  0.587499976       5.39786047E-20
  0.588750005      -1.94491524E-18
  0.589999974      -4.20658771E-18
  0.591250002      -6.51261341E-18
  0.592499971      -8.59861526E-18
  0.593750000      -1.01808041E-17
  0.595000029      -1.09884732E-17
  0.596249998      -1.07990257E-17
  0.597500026      -9.47149346E-18
  0.598749995      -6.97425836E-18
  0.600000024      -3.40300119E-18
  0.601249993       1.01430148E-18
  0.602500021       5.92725946E-18
  0.603749990       1.08881594E-17
  0.605000019       1.53908269E-17
  0.606249988       1.89200922E-17
  0.607500017       2.10071698E-17
  0.608749986       2.12852034E-17
  0.610000014       1.95387092E-17
  0.611249983       1.57408649E-17
  0.612500012       1.00734866E-17
  0.613749981       2.92608917E-18
  0.615000010      -5.12749161E-18
  0.616249979      -1.33740398E-17
  0.617500007      -2.10241386E-17
  0.618749976      -2.72880234E-17
  0.620000005      -3.14567754E-17
  0.621249974      -3.29804950E-17
  0.622500002      -3.15348580E-17
  0.623749971      -2.70682977E-17
  0.625000000      -1.98236315E-17
  0.626250029      -1.03304287E-17
  0.627499998       6.32650118E-19
  0.628750026       1.21030900E-17
  0.629999995       2.30218377E-17
  0.631250024       3.23345464E-17
  0.632499993       3.90967942E-17
  0.633750021       4.25724153E-17
  0.634999990       4.23144474E-17
  0.636250019       3.82196122E-17
  0.637499988       3.05497686E-17
  0.638750017       1.99170136E-17
  0.639999986       7.23294007E-18
  0.641250014      -6.37370910E-18
  0.642499983      -1.96632296E-17
  0.643750012      -3.14045307E-17
  0.644999981      -4.04960066E-17
  0.646250010      -4.60751976E-17
  0.647499979      -4.76057497E-17
  0.648750007      -4.49323648E-17
  0.649999976      -3.82977477E-17
  0.651250005      -2.83194845E-17
  0.652499974      -1.59290650E-17
  0.653750002      -2.27931086E-18
  0.654999971       1.13702171E-17
  0.656250000       2.37777865E-17
  0.657500029       3.38410243E-17
  0.658749998       4.07027422E-17
  0.660000026       4.38301434E-17
  0.661249995       4.30594790E-17
  0.662500024       3.86020376E-17
  0.663749993       3.10115868E-17
  0.665000021       2.11176034E-17
  0.666249990       9.93223886E-18
  0.667500019      -1.45828613E-18
  0.668749988      -1.20057515E-17
  0.670000017      -2.08032930E-17
  0.671249986      -2.71691989E-17
  0.672500014      -3.07028532E-17
  0.673749983      -3.13079590E-17
  0.675000012      -2.91820651E-17
  0.676249981      -2.47752703E-17
  0.677500010      -1.87244442E-17
  0.678749979      -1.17717305E-17
  0.680000007      -4.67754713E-18
  0.681249976       1.86165289E-18
  0.682500005       7.28175530E-18
  0.683749974       1.11986441E-17
  0.685000002       1.34312253E-17
  0.686249971       1.39992229E-17
  0.687500000       1.30982809E-17
  0.688750029       1.10576082E-17
  0.689999998       8.28710814E-18
  0.691250026       5.22171700E-18
  0.692499995       2.27022490E-18
  0.693750024      -2.25497241E-19
  0.694999993      -2.01710991E-18
  0.696250021      -2.96099475E-18
  0.697499990      -3.01528716E-18
  0.698750019      -2.22607827E-18
  0.699999988      -7.07455887E-19
  0.701250017       1.37955259E-18
  0.702499986       3.84467676E-18
  0.703750014       6.47975035E-18
  0.704999983       9.06278766E-18
  0.706250012       1.13561616E-17
  0.707499981       1.31022911E-17
  0.708750010       1.40216693E-17
  0.709999979       1.38184541E-17
  0.711250007       1.21980892E-17
  0.712499976       8.89945340E-18
  0.713750005       3.74114270E-18
  0.714999974      -3.32199704E-18
  0.716250002      -1.21394206E-17
  0.717499971      -2.23127189E-17
  0.718750000      -3.31625476E-17
  0.720000029      -4.37263157E-17
  0.721249998      -5.27962121E-17
  0.722500026      -5.90029784E-17
  0.723749995      -6.09449735E-17
  0.725000024      -5.73551221E-17
  0.726249993      -4.72911895E-17
  0.727500021      -3.03283853E-17
  0.728749990      -6.72875942E-18
  0.730000019       2.24398450E-17
  0.731249988       5.52608464E-17
  0.732500017       8.90220246E-17
  0.733749986       1.20375664E-16
  0.735000014       1.45604792E-16
  0.736249983       1.60980888E-16
  0.737500012       1.63184682E-16
  0.738749981       1.49749178E-16
  0.740000010       1.19475744E-16
  0.741249979       7.27695534E-17
  0.742500007       1.18431708E-17
  0.743749976      -5.92542295E-17
  0.745000005      -1.34809807E-16
  0.746249974      -2.07829605E-16
  0.747500002      -2.70614930E-16
  0.748749971      -3.15491953E-16
  0.750000000      -3.35632067E-16
  0.751250029      -3.25882162E-16
  0.752499998      -2.83513971E-16
  0.753750026      -2.08800702E-16
  0.754999995      -1.05337878E-16
  0.756250024       1.99540945E-17
  0.757499993       1.57180039E-16
  0.758750021       2.94171525E-16
  0.759999990       4.17499840E-16
  0.761250019       5.13722677E-16
  0.762499988       5.70754146E-16
  0.763750017       5.79224158E-16
  0.764999986       5.33683167E-16
  0.766250014       4.33511065E-16
  0.767499983       2.83410130E-16
  0.768750012       9.33956064E-17
  0.769999981      -1.21756235E-16
  0.771250010      -3.43588327E-16
  0.772499979      -5.51500611E-16
  0.773750007      -7.24621652E-16
  0.774999976      -8.43846409E-16
  0.776250005      -8.93844435E-16
  0.777499974      -8.64831015E-16
  0.778750002      -7.53907233E-16
  0.779999971      -5.65804456E-16
  0.781250000      -3.12922055E-16
  0.782500029      -1.46107691E-17
  0.783749998       3.04269508E-16
  0.785000026       6.15415441E-16
  0.786249995       8.89597518E-16
  0.787500024       1.09940334E-15
  0.788749993       1.22194699E-15
  0.790000021       1.24127586E-15
  0.791249990       1.15022426E-15
  0.792500019       9.51508320E-16
  0.793749988       6.57921830E-16
  0.795000017       2.91577672E-16
  0.796249986      -1.17768510E-16
  0.797500014      -5.35184903E-16
  0.798749983      -9.23609914E-16
  0.800000012      -1.24720488E-15
  0.801249981      -1.47470225E-15
  0.802500010      -1.58242875E-15
  0.803749979      -1.55670775E-15
  0.805000007      -1.39539710E-15
  0.806249976      -1.10839661E-15
  0.807500005      -7.17056536E-16
  0.808749974      -2.52519236E-16
  0.810000002       2.46867620E-16
  0.811249971       7.38841588E-16
  0.812500000       1.18092275E-15
  0.813750029       1.53418197E-15
  0.814999998       1.76673296E-15
  0.816250026       1.85662782E-15
  0.817499995       1.79388767E-15
  0.818750024       1.58148113E-15
  0.819999993       1.23516271E-15
  0.821250021       7.82183946E-16
  0.822499990       2.58997741E-16
  0.823750019      -2.91835170E-16
  0.824999988      -8.25258695E-16
  0.826250017      -1.29753028E-15
  0.827499986      -1.66989157E-15
  0.828750014      -1.91178301E-15
  0.829999983      -2.00333414E-15
  0.831250012      -1.93692676E-15
  0.832499981      -1.71771876E-15
  0.833750010      -1.36310355E-15
  0.834999979      -9.01176987E-16
  0.836250007      -3.68361764E-16
  0.837499976       1.93593761E-16
  0.838750005       7.40982040E-16
  0.839999974       1.23158823E-15
  0.841250002       1.62795095E-15
  0.842499971       1.90018459E-15
  0.843750000       2.02815792E-15
  0.845000029       2.00288437E-15
  0.846249998       1.82704647E-15
  0.847500026       1.51464060E-15
  0.848749995       1.08979524E-15
  0.850000024       5.84871856E-16
  0.851249993       3.80012630E-17
  0.852500021      -5.09760415E-16
  0.853749990      -1.01745195E-15
  0.855000019      -1.44719719E-15
  0.856249988      -1.76696187E-15
  0.857500017      -1.95289608E-15
  0.858749986      -1.99110701E-15
  0.860000014      -1.87873750E-15
  0.861249983      -1.62427334E-15
  0.862500012      -1.24704150E-15
  0.863749981      -7.75913096E-16
  0.865000010      -2.47277346E-16
  0.866249979       2.97600288E-16
  0.867500007       8.15670758E-16
  0.868749976       1.26543895E-15
  0.870000005       1.61031128E-15