 -0.200000003       0.00000000    
 -0.198750004       0.00000000    
 -0.197500005       0.00000000    
 -0.196250007       0.00000000    
 -0.194999993       0.00000000    
 -0.193749994       0.00000000    
 -0.192499995       0.00000000    
 -0.191249996       0.00000000    
 -0.189999998       0.00000000    
 -0.188749999       0.00000000    
 -0.187500000       0.00000000    
 -0.186250001       0.00000000    
 -0.185000002       0.00000000    
 -0.183750004       0.00000000    
 -0.182500005       0.00000000    
 -0.181250006       0.00000000    
 -0.180000007       0.00000000    
 -0.178749993       0.00000000    
 -0.177499995       0.00000000    
 -0.176249996       0.00000000    
 -0.174999997       0.00000000    
 -0.173749998       0.00000000    
 -0.172499999       0.00000000    
 -0.171250001       0.00000000    
 -0.170000002       0.00000000    
 -0.168750003       0.00000000    
 -0.167500004       0.00000000    
 -0.166250005       0.00000000    
 -0.165000007       0.00000000    
 -0.163749993       0.00000000    
 -0.162499994       0.00000000    
 -0.161249995       0.00000000    
 -0.159999996       0.00000000    
 -0.158749998       0.00000000    
 -0.157499999       0.00000000    
 -0.156250000       0.00000000    
 -0.155000001       0.00000000    
 -0.153750002       2.24207754E-41
 -0.152500004       1.12103877E-40
 -0.151250005       3.00666802E-40
 -0.150000006       6.70609597E-40
 -0.148750007       1.27941493E-39
 -0.147499993       2.04919582E-39
 -0.146249995       1.20094221E-39
 -0.144999996      -9.54605152E-40
 -0.143749997      -4.52438636E-39
 -0.142499998      -1.67615419E-38
 -0.141249999      -3.63429391E-38
 -0.140000001      -6.46664265E-38
 -0.138750002      -9.76928677E-38
 -0.137500003      -1.14753206E-37
 -0.136250004      -7.26853850E-38
 -0.135000005       1.01275483E-37
 -0.133750007       5.06474689E-37
 -0.132499993       1.23624398E-36
 -0.131249994       2.31410975E-36
 -0.129999995       3.54488459E-36
 -0.128749996       4.33939257E-36
 -0.127499998       3.48905112E-36
 -0.126249999      -9.42070402E-37
 -0.125000000      -1.14356150E-35
 -0.123750001      -3.02472317E-35
 -0.122500002      -5.77206642E-35
 -0.121250004      -8.95240713E-35
 -0.119999997      -1.13015459E-34
 -0.118749999      -1.03735517E-34
 -0.117500000      -2.41658708E-35
 -0.116250001       1.71884618E-34
 -0.115000002       5.25004246E-34
 -0.113750003       1.04212304E-33
 -0.112499997       1.65374441E-33
 -0.111249998       2.16185037E-33
 -0.109999999       2.19455410E-33
 -0.108750001       1.19699139E-33
 -0.107500002      -1.49900959E-33
 -0.106250003      -6.47851083E-33
 -0.104999997      -1.38840547E-32
 -0.103749998      -2.28972884E-32
 -0.102499999      -3.11421691E-32
 -0.101250000      -3.42023982E-32
 -0.100000001      -2.55751130E-32
  -9.87500027E-02   2.51271377E-33
  -9.74999964E-02   5.69856680E-32
  -9.62499976E-02   1.40224980E-31
  -9.49999988E-02   2.44947209E-31
  -9.37500000E-02   3.48530431E-31
  -9.25000012E-02   4.08632775E-31
  -9.12500024E-02   3.62967053E-31
  -9.00000036E-02   1.36793676E-31
  -8.87499973E-02  -3.38474453E-31
  -8.74999985E-02  -1.09380069E-30
  -8.62499997E-02  -2.08003312E-30
  -8.50000009E-02  -3.12191100E-30
  -8.37500021E-02  -3.88318221E-30
  -8.25000033E-02  -3.86433781E-30
  -8.12499970E-02  -2.45840594E-30
  -7.99999982E-02   9.12381475E-31
  -7.87499994E-02   6.56907320E-30
  -7.75000006E-02   1.42733121E-29
  -7.62500018E-02   2.29030114E-29
  -7.50000030E-02   3.02049491E-29
  -7.37499967E-02   3.27637156E-29
  -7.24999979E-02   2.63460295E-29
  -7.12499991E-02   6.75718314E-30
  -7.00000003E-02  -2.87380164E-29
  -6.87500015E-02  -7.95334076E-29
  -6.75000027E-02  -1.39664010E-28
  -6.62499964E-02  -1.96229921E-28
  -6.49999976E-02  -2.29056072E-28
  -6.37499988E-02  -2.12473021E-28
  -6.25000000E-02  -1.19957498E-28
  -6.12500012E-02   6.80968564E-29
  -5.99999987E-02   3.54047867E-28
  -5.87499999E-02   7.11825537E-28
  -5.75000010E-02   1.07788540E-27
  -5.62499985E-02   1.34832988E-27
  -5.49999997E-02   1.38662132E-27
  -5.37500009E-02   1.04554943E-27
  -5.24999984E-02   2.04802837E-28
  -5.12499996E-02  -1.17848491E-27
  -5.00000007E-02  -3.01418648E-27
  -4.87499982E-02  -5.03235749E-27
  -4.74999994E-02  -6.76358170E-27
  -4.62500006E-02  -7.56656198E-27
  -4.50000018E-02  -6.71961349E-27
  -4.37499993E-02  -3.58261912E-27
  -4.25000004E-02   2.18104748E-27
  -4.12500016E-02   1.03556575E-26
  -3.99999991E-02   1.99544045E-26
  -3.87500003E-02   2.91072418E-26
  -3.75000015E-02   3.51386473E-26
  -3.62499990E-02   3.49049657E-26
  -3.50000001E-02   2.54216790E-26
  -3.37500013E-02   4.74393254E-27
  -3.24999988E-02  -2.70227107E-26
  -3.12500000E-02  -6.67974689E-26
  -2.99999993E-02  -1.07975324E-25
  -2.87500005E-02  -1.40571550E-25
  -2.74999999E-02  -1.52330212E-25
  -2.62499992E-02  -1.30925149E-25
  -2.50000004E-02  -6.71437973E-26
  -2.37499997E-02   4.13660324E-26
  -2.25000009E-02   1.86535948E-25
  -2.12500002E-02   3.47519064E-25
  -1.99999996E-02   4.90656495E-25
  -1.87500007E-02   5.72742698E-25
  -1.75000001E-02   5.48095183E-25
  -1.62499994E-02   3.79147801E-25
  -1.49999997E-02   4.92507834E-26
  -1.37499999E-02  -4.24731734E-25
  -1.25000002E-02  -9.83341545E-25
  -1.12500004E-02  -1.52266721E-24
  -9.99999978E-03  -1.90298947E-24
  -8.75000004E-03  -1.96979870E-24
  -7.49999983E-03  -1.58659699E-24
  -6.25000009E-03  -6.75681207E-25
  -4.99999989E-03   7.40342508E-25
  -3.74999992E-03   2.50647043E-24
  -2.49999994E-03   4.32415525E-24
  -1.24999997E-03   5.77162784E-24
   0.00000000       6.36212849E-24
   1.24999997E-03   5.63943882E-24
   2.49999994E-03   3.30052776E-24
   3.74999992E-03  -6.75140739E-25
   4.99999989E-03  -5.91903242E-24
   6.25000009E-03  -1.16238489E-23
   7.49999983E-03  -1.65828581E-23
   8.75000004E-03  -1.93398055E-23
   9.99999978E-03  -1.84515528E-23
   1.12500004E-02  -1.28389558E-23
   1.25000002E-02  -2.17194785E-24
   1.37499999E-02   1.27917969E-23
   1.49999997E-02   3.00110740E-23
   1.62499994E-02   4.62029427E-23
   1.75000001E-02   5.71917467E-23
   1.87500007E-02   5.85852979E-23
   1.99999996E-02   4.67279044E-23
   2.12500002E-02   1.97986874E-23
   2.25000009E-02  -2.11525400E-23
   2.37499997E-02  -7.14913021E-23
   2.50000004E-02  -1.22874300E-22
   2.62499992E-02  -1.63931695E-22
   2.74999999E-02  -1.81856029E-22
   2.87500005E-02  -1.64823626E-22
   2.99999993E-02  -1.04962815E-22
   3.12500000E-02  -1.37373628E-24
   3.24999988E-02   1.37456476E-22
   3.37500013E-02   2.92563216E-22
   3.50000001E-02   4.35378266E-22
   3.62499990E-02   5.30965741E-22
   3.75000015E-02   5.43617606E-22
   3.87500003E-02   4.44292066E-22
   3.99999991E-02   2.18831757E-22
   4.12500016E-02  -1.24571121E-22
   4.25000004E-02  -5.50466534E-22
   4.37499993E-02  -9.95560638E-22
   4.50000018E-02  -1.37378917E-21
   4.62500006E-02  -1.58756488E-21
   4.74999994E-02  -1.54456562E-21
   4.87499982E-02  -1.17809815E-21
   5.00000007E-02  -4.67823143E-22
   5.12499996E-02   5.43305848E-22
   5.24999984E-02   1.74033894E-21
   5.37500009E-02   2.93977829E-21
   5.49999997E-02   3.90765009E-21
   5.62499985E-02   4.39232542E-21
   5.75000010E-02   4.16931866E-21
   5.87499999E-02   3.09217804E-21
   5.99999987E-02   1.14096136E-21
   6.12500012E-02  -1.54184497E-21
   6.25000000E-02  -4.63803603E-21
   6.37499988E-02  -7.67110498E-21
   6.49999976E-02  -1.00583490E-20
   6.62499964E-02  -1.11957991E-20
   6.75000027E-02  -1.05673907E-20
   6.87500015E-02  -7.86301573E-21
   7.00000003E-02  -3.08499958E-21
   7.12499991E-02   3.37997307E-21
   7.24999979E-02   1.07449566E-20
   7.37499967E-02   1.78784637E-20
   7.50000030E-02   2.34372111E-20
   7.62500018E-02   2.60679152E-20
   7.75000006E-02   2.46551925E-20
   7.87499994E-02   1.85791131E-20
   7.99999982E-02   7.93607581E-21
   8.12499970E-02  -6.32626400E-21
   8.25000033E-02  -2.24036020E-20
   8.37500021E-02  -3.77876848E-20
   8.50000009E-02  -4.95818715E-20
   8.62499997E-02  -5.49546487E-20
   8.74999985E-02  -5.16753203E-20
   8.87499973E-02  -3.86482984E-20
   9.00000036E-02  -1.63457868E-20
   9.12500024E-02   1.29635931E-20
   9.25000012E-02   4.52756210E-20
   9.37500000E-02   7.52493893E-20
   9.49999988E-02   9.69392347E-20
   9.62499976E-02   1.04790775E-19
   9.74999964E-02   9.47674332E-20
   9.87500027E-02   6.54211395E-20
  0.100000001       1.86918213E-20
  0.101250000      -3.97736033E-20
  0.102499999      -1.00945341E-19
  0.103749998      -1.53452667E-19
  0.104999997      -1.85297866E-19
  0.106250003      -1.86057541E-19
  0.107500002      -1.49254014E-19
  0.108750001      -7.44779465E-20
  0.109999999       3.12020767E-20
  0.111249998       1.52971131E-19
  0.112499997       2.69447493E-19
  0.113750003       3.55406913E-19
  0.115000002       3.85875025E-19
  0.116250001       3.41112069E-19
  0.117500000       2.11735980E-19
  0.118749999       3.03203781E-21
  0.119999997      -2.62558836E-19
  0.121250004      -5.45670939E-19
  0.122500002      -7.93547294E-19
  0.123750001      -9.46972185E-19
  0.125000000      -9.50083935E-19
  0.126249999      -7.61892384E-19
  0.127499998      -3.67740796E-19
  0.128749996       2.11432418E-19
  0.129999995       9.14262155E-19
  0.131249994       1.64046221E-18
  0.132499993       2.25985330E-18
  0.133750007       2.62898885E-18
  0.135000005       2.61409319E-18
  0.136250004       2.11760656E-18
  0.137500003       1.10439076E-18
  0.138750002      -3.77153672E-19
  0.140000001      -2.18393507E-18
  0.141249999      -4.08114908E-18
  0.142499998      -5.76195362E-18
  0.143749997      -6.88405721E-18
  0.144999996      -7.12049644E-18
  0.146249995      -6.21893244E-18
  0.147499993      -4.06108375E-18
  0.148750007      -7.12220809E-19
  0.150000006       3.54969257E-18
  0.151250005       8.23430341E-18
  0.152500004       1.26745510E-17
  0.153750002       1.60988621E-17
  0.155000001       1.77351841E-17
  0.156250000       1.69360284E-17
  0.157499999       1.33080862E-17
  0.158749998       6.82626003E-18
  0.159999996      -2.08931016E-18
  0.161249995      -1.25525402E-17
  0.162499994      -2.32607589E-17
  0.163749993      -3.26190734E-17
  0.165000007      -3.89335419E-17
  0.166250005      -4.06550106E-17
  0.167500004      -3.66442699E-17
  0.168750003      -2.64208271E-17
  0.170000002      -1.03539422E-17
  0.171250001       1.02434416E-17
  0.172499999       3.31484789E-17
  0.173749998       5.54058346E-17
  0.174999997       7.36450083E-17
  0.176249996       8.45120770E-17
  0.177499995       8.51686070E-17
  0.178749993       7.37935898E-17
  0.180000007       5.00135468E-17
  0.181250006       1.51862337E-17
  0.182500005      -2.75264367E-17
  0.183750004      -7.33377537E-17
  0.185000002      -1.16278711E-16
  0.186250001      -1.49876352E-16
  0.187500000      -1.68003281E-16
  0.188749999      -1.65798454E-16
  0.189999998      -1.40536927E-16
  0.191249996      -9.23160100E-17
  0.192499995      -2.44355605E-17
  0.193749994       5.66225445E-17
  0.194999993       1.41664752E-16
  0.196250007       2.19697609E-16
  0.197500005       2.79207867E-16
  0.198750004       3.09678395E-16
  0.200000003       3.03155951E-16
  0.201250002       2.55660616E-16
  0.202500001       1.68220995E-16
  0.203749999       4.73494230E-17
  0.204999998      -9.51726087E-17
  0.206249997      -2.43249969E-16
  0.207499996      -3.78121940E-16
  0.208749995      -4.80556096E-16
  0.209999993      -5.33351289E-16
  0.211250007      -5.23844826E-16
  0.212500006      -4.46087361E-16
  0.213750005      -3.02360295E-16
  0.215000004      -1.03764309E-16
  0.216250002       1.30293056E-16
  0.217500001       3.73753791E-16
  0.218750000       5.96604162E-16
  0.219999999       7.68354439E-16
  0.221249998       8.61924845E-16
  0.222499996       8.57465958E-16
  0.223749995       7.45611128E-16
  0.224999994       5.29687765E-16
  0.226249993       2.26503969E-16
  0.227500007      -1.34519883E-16
  0.228750005      -5.13909130E-16
  0.230000004      -8.66205326E-16
  0.231250003      -1.14516027E-15
  0.232500002      -1.30948985E-15
  0.233750001      -1.32850257E-15
  0.234999999      -1.18687887E-15
  0.236249998      -8.87926216E-16
  0.237499997      -4.54764843E-16
  0.238749996       7.08686791E-17
  0.239999995       6.32255303E-16
  0.241249993       1.16350690E-15
  0.242500007       1.59700799E-15
  0.243750006       1.87168764E-15
  0.245000005       1.94115832E-15
  0.246250004       1.78068052E-15
  0.247500002       1.39199965E-15
  0.248750001       8.05259453E-16
  0.250000000       7.75201708E-17
  0.251249999      -7.12218389E-16
  0.252499998      -1.47115965E-15
  0.253749996      -2.10325332E-15
  0.254999995      -2.52102522E-15
  0.256249994      -2.65729376E-15
  0.257499993      -2.47529497E-15
  0.258749992      -1.97577402E-15
  0.259999990      -1.19988411E-15
  0.261249989      -2.27133632E-16
  0.262499988       8.31790219E-16
  0.263749987       1.84687360E-15
  0.264999986       2.68418558E-15
  0.266250014       3.22317233E-15
  0.267500013       3.37372948E-15
  0.268750012       3.09078003E-15
  0.270000011       2.38415592E-15
  0.271250010       1.32199153E-15
  0.272500008       2.64949805E-17
  0.273750007      -1.33810570E-15
  0.275000006      -2.58462575E-15
  0.276250005      -3.52712820E-15
  0.277500004      -4.00744501E-15
  0.278750002      -3.92057374E-15
  0.280000001      -3.23523578E-15
  0.281250000      -2.00610076E-15
  0.282499999      -3.74937440E-16
  0.283749998       1.44080728E-15
  0.284999996       3.17192366E-15
  0.286249995       4.53193501E-15
  0.287499994       5.25848811E-15
  0.288749993       5.15647104E-15
  0.289999992       4.13672977E-15
  0.291249990       2.24403613E-15
  0.292499989      -3.31288641E-16
  0.293749988      -3.26216105E-15
  0.294999987      -6.11549360E-15
  0.296249986      -8.40352822E-15
  0.297500014      -9.65106375E-15
  0.298750013      -9.47093627E-15
  0.300000012      -7.63766729E-15
  0.301250011      -4.14808170E-15
  0.302500010       7.42133370E-16
  0.303750008       6.51502549E-15
  0.305000007       1.24257116E-14
  0.306250006       1.75772178E-14
  0.307500005       2.10298935E-14
  0.308750004       2.19347008E-14
  0.310000002       1.96745493E-14
  0.311250001       1.39943124E-14
  0.312500000       5.09895750E-15
  0.313749999      -6.29950897E-15
  0.314999998      -1.90007498E-14
  0.316249996      -3.14080427E-14
  0.317499995      -4.16914868E-14
  0.318749994      -4.80101222E-14
  0.319999993      -4.87705444E-14
  0.321249992      -4.28910447E-14
  0.322499990      -3.00349481E-14
  0.323749989      -1.07762530E-14
  0.324999988       1.33358375E-14
  0.326249987       3.98370031E-14
  0.327499986       6.55424879E-14
  0.328750014       8.68692461E-14
  0.330000013       1.00259746E-13
  0.331250012       1.02664371E-13
  0.332500011       9.20254948E-14
  0.333750010       6.76981054E-14
  0.335000008       3.07420173E-14
  0.336250007      -1.59710773E-14
  0.337500006      -6.78750540E-14
  0.338750005      -1.19065673E-13
  0.340000004      -1.62881142E-13
  0.341250002      -1.92659392E-13
  0.342500001      -2.02597257E-13
  0.343750000      -1.88611428E-13
  0.344999999      -1.49091514E-13
  0.346249998      -8.54329899E-14
  0.347499996      -2.25459545E-15
  0.348749995       9.27663098E-14
  0.349999994       1.89466796E-13
  0.351249993       2.76155455E-13
  0.352499992       3.40879126E-13
  0.353749990       3.72874854E-13
  0.354999989       3.64048364E-13
  0.356249988       3.10294162E-13
  0.357499987       2.12477673E-13
  0.358749986       7.69168597E-14
  0.360000014      -8.47501187E-14
  0.361250013      -2.56364130E-13
  0.362500012      -4.18683995E-13
  0.363750011      -5.51358818E-13
  0.365000010      -6.35249069E-13
  0.366250008      -6.54850360E-13
  0.367500007      -6.00539095E-13
  0.368750006      -4.70346906E-13
  0.370000005      -2.71006416E-13
  0.371250004      -1.80681513E-14
  0.372500002       2.65016524E-13
  0.373750001       5.48837614E-13
  0.375000000       8.00861222E-13
  0.376249999       9.88907307E-13
  0.377499998       1.08491785E-12
  0.378749996       1.06860441E-12
  0.379999995       9.30528332E-13
  0.381249994       6.74212639E-13
  0.382499993       3.16944848E-13
  0.383749992      -1.10930552E-13
  0.384999990      -5.68281045E-13
  0.386249989      -1.00688891E-12
  0.387499988      -1.37627702E-12
  0.388749987      -1.62920610E-12
  0.389999986      -1.72725885E-12
  0.391250014      -1.64589056E-12
  0.392500013      -1.37832486E-12
  0.393750012      -9.37764081E-13
  0.395000011      -3.57539438E-13
  0.396250010       3.10981818E-13
  0.397500008       1.00265195E-12
  0.398750007       1.64465165E-12
  0.400000006       2.16389840E-12
  0.401250005       2.49502394E-12
  0.402500004       2.58807494E-12
  0.403750002       2.41505514E-12
  0.405000001       1.97452146E-12
  0.406250000       1.29358698E-12
  0.407499999       4.26946971E-13
  0.408749998      -5.47156721E-13
  0.409999996      -1.53378547E-12
  0.411249995      -2.43039009E-12
  0.412499994      -3.13727733E-12
  0.413749993      -3.56840989E-12
  0.414999992      -3.66136808E-12
  0.416249990      -3.38537315E-12
  0.417499989      -2.74637453E-12
  0.418749988      -1.78850478E-12
  0.419999987      -5.91551222E-13
  0.421249986       7.35494619E-13
  0.422500014       2.06430966E-12
  0.423750013       3.25965730E-12
  0.425000012       4.19313499E-12
  0.426250011       4.75685377E-12
  0.427500010       4.87559559E-12
  0.428750008       4.51607545E-12
  0.430000007       3.69221927E-12
  0.431250006       2.46572316E-12
  0.432500005       9.41648235E-13
  0.433750004      -7.40663715E-13
  0.435000002      -2.42057394E-12
  0.436250001      -3.93179976E-12
  0.437500000      -5.11916854E-12
  0.438749999      -5.85476589E-12
  0.439999998      -6.05172986E-12
  0.441249996      -5.67423018E-12
  0.442499995      -4.74242260E-12
  0.443749994      -3.33179513E-12
  0.444999993      -1.56681092E-12
  0.446249992       3.90597223E-13
  0.447499990       2.35656330E-12
  0.448749989       4.14331156E-12
  0.449999988       5.57782726E-12
  0.451249987       6.51920228E-12
  0.452499986       6.87288984E-12
  0.453750014       6.60031535E-12
  0.455000013       5.72283106E-12
  0.456250012       4.31961801E-12
  0.457500011       2.51973702E-12
  0.458750010       4.89185515E-13
  0.460000008      -1.58563462E-12
  0.461250007      -3.51630010E-12
  0.462500006      -5.13062943E-12
  0.463750005      -6.28894072E-12
  0.465000004      -6.89662433E-12
  0.466250002      -6.91183655E-12
  0.467500001      -6.34762425E-12
  0.468750000      -5.26848010E-12
  0.469999999      -3.78192139E-12
  0.471249998      -2.02619410E-12
  0.472499996      -1.55653200E-13
  0.473749995       1.67449659E-12
  0.474999994       3.32238772E-12
  0.476249993       4.67114281E-12
  0.477499992       5.63690457E-12
  0.478749990       6.17268433E-12
  0.479999989       6.26801042E-12
  0.481249988       5.94492814E-12
  0.482499987       5.25128248E-12
  0.483749986       4.25254883E-12
  0.485000014       3.02353390E-12
  0.486250013       1.64114664E-12
  0.487500012       1.79176620E-13
  0.488750011      -1.29444014E-12
  0.490000010      -2.71788798E-12
  0.491250008      -4.03375163E-12
  0.492500007      -5.18622732E-12
  0.493750006      -6.11838965E-12
  0.495000005      -6.77071550E-12
  0.496250004      -7.08187458E-12
  0.497500002      -6.99240102E-12
  0.498750001      -6.45135421E-12
  0.500000000      -5.42544395E-12
  0.501250029      -3.90949469E-12
  0.502499998      -1.93663098E-12
  0.503750026       4.13703712E-13
  0.504999995       3.01181909E-12
  0.506250024       5.67957400E-12
  0.507499993       8.19894153E-12
  0.508750021       1.03275661E-11
  0.509999990       1.18205558E-11
  0.511250019       1.24567665E-11
  0.512499988       1.20668874E-11
  0.513750017       1.05601101E-11
  0.514999986       7.94569011E-12
  0.516250014       4.34610594E-12
  0.517499983      -1.06994640E-15
  0.518750012      -4.75420267E-12
  0.519999981      -9.49189252E-12
  0.521250010      -1.37492127E-11
  0.522499979      -1.70629604E-11
  0.523750007      -1.90216315E-11
  0.524999976      -1.93147616E-11
  0.526250005      -1.77758485E-11
  0.527499974      -1.44133230E-11
  0.528750002      -9.42486540E-12
  0.529999971      -3.19198032E-12
  0.531250000       3.74622338E-12
  0.532500029       1.07387554E-11
  0.533749998       1.70843114E-11
  0.535000026       2.21028751E-11
  0.536249995       2.52100025E-11
  0.537500024       2.59855713E-11
  0.538749993       2.42288481E-11
  0.540000021       1.99928164E-11
  0.541249990       1.35926418E-11
  0.542500019       5.58569770E-12
  0.543749988      -3.27610747E-12
  0.545000017      -1.21179143E-11
  0.546249986      -2.00305970E-11
  0.547500014      -2.61674120E-11
  0.548749983      -2.98381007E-11
  0.550000012      -3.05897946E-11
  0.551249981      -2.82648870E-11
  0.552500010      -2.30284351E-11
  0.553749979      -1.53607474E-11
  0.555000007      -6.01460461E-12
  0.556249976       4.05935442E-12
  0.557500005       1.38117660E-11
  0.558749974       2.22076905E-11
  0.560000002       2.83414212E-11
  0.561249971       3.15397881E-11
  0.562500000       3.14417728E-11
  0.563750029       2.80446829E-11
  0.564999998       2.17104165E-11
  0.566250026       1.31302634E-11
  0.567499995       3.25101643E-12
  0.568750024      -6.82978977E-12
  0.569999993      -1.59881205E-11
  0.571250021      -2.32030090E-11
  0.572499990      -2.76762745E-11
  0.573750019      -2.89280197E-11
  0.574999988      -2.68560139E-11
  0.576250017      -2.17510263E-11
  0.577499986      -1.42653432E-11
  0.578750014      -5.33719076E-12
  0.579999983       3.92079078E-12
  0.581250012       1.23562636E-11
  0.582499981       1.89191544E-11
  0.583750010       2.27937096E-11
  0.584999979       2.35040494E-11
  0.586250007       2.09795115E-11
  0.587499976       1.55706004E-11
  0.588750005       8.01218987E-12
  0.589999974      -6.62974883E-13
  0.591250002      -9.25113892E-12
  0.592499971      -1.65300273E-11
  0.593750000      -2.14187262E-11
  0.595000029      -2.31248909E-11
  0.596249998      -2.12602505E-11
  0.597500026      -1.59086442E-11
  0.598749995      -7.63595003E-12
  0.600000024       2.56159286E-12
  0.601249993       1.33668666E-11
  0.602500021       2.32978463E-11
  0.603749990       3.08924414E-11
  0.605000019       3.49002945E-11
  0.606249988       3.44577630E-11
  0.607500017       2.92232627E-11
  0.608749986       1.94540911E-11
  0.610000014       6.01222024E-12
  0.611249983      -9.70534157E-12
  0.612500012      -2.59068721E-11
  0.613749981      -4.06033679E-11
  0.615000010      -5.18417601E-11
  0.616249979      -5.79472650E-11
  0.617500007      -5.77459400E-11
  0.618749976      -5.07392288E-11
  0.620000005      -3.72070985E-11
  0.621249974      -1.82234852E-11
  0.622500002       4.42208032E-12
  0.623749971       2.83923579E-11
  0.625000000       5.10439815E-11
  0.626250029       6.97181896E-11
  0.627499998       8.20484444E-11
  0.628750026       8.62499447E-11
  0.629999995       8.13560400E-11
  0.631250024       6.73717818E-11
  0.632499993       4.53226866E-11
  0.633750021       1.71888389E-11
  0.634999990      -1.42733759E-11
  0.636250019      -4.58057932E-11
  0.637499988      -7.39919931E-11
  0.638750017      -9.56328766E-11
  0.639999986      -1.08112991E-10
  0.641250014      -1.09715133E-10
  0.642499983      -9.98458052E-11
  0.643750012      -7.91427410E-11
  0.644999981      -4.94479284E-11
  0.646250010      -1.36452828E-11
  0.647499979       2.46237562E-11
  0.648750007       6.13377751E-11
  0.649999976       9.25270693E-11
  0.651250005       1.14711685E-10
  0.652499974       1.25297606E-10
  0.653750002       1.22884883E-10
  0.654999971       1.07451402E-10
  0.656250000       8.03879532E-11
  0.657500029       4.43781019E-11
  0.658749998       3.13164815E-12
  0.660000026      -3.90008546E-11
  0.661249995      -7.74926512E-11
  0.662500024      -1.08133592E-10
  0.663749993      -1.27497457E-10
  0.665000021      -1.33330763E-10
  0.666249990      -1.24818614E-10
  0.667500019      -1.02696407E-10
  0.668749988      -6.91919369E-11
  0.670000017      -2.78024270E-11
  0.671249986       1.70709748E-11
  0.672500014       6.05930167E-11
  0.673749983       9.80167336E-11
  0.675000012       1.25202390E-10
  0.676249981       1.39074668E-10
  0.677500010       1.37967124E-10
  0.678749979       1.21815877E-10
  0.680000007       9.21794169E-11
  0.681249976       5.20823627E-11
  0.682500005       5.69815852E-12
  0.683749974      -4.20928778E-11
  0.685000002      -8.62240834E-11
  0.686249971      -1.21982438E-10
  0.687500000      -1.45512352E-10
  0.688750029      -1.54223856E-10
  0.689999998      -1.47067095E-10
  0.691250026      -1.24637509E-10
  0.692499995      -8.91097404E-11
  0.693750024      -4.40018820E-11
  0.694999993       6.19850482E-12
  0.696250021       5.65066709E-11
  0.697499990       1.01955236E-10
  0.698750019       1.38098338E-10
  0.699999988       1.61453559E-10
  0.701250017       1.69830552E-10
  0.702499986       1.62521982E-10
  0.703750014       1.40331469E-10
  0.704999983       1.05453826E-10
  0.706250012       6.12139922E-11
  0.707499981       1.17091207E-11
  0.708750010      -3.86144935E-11
  0.709999979      -8.53937823E-11
  0.711250007      -1.24746352E-10
  0.712499976      -1.53596122E-10
  0.713750005      -1.69904243E-10
  0.714999974      -1.72768522E-10
  0.716250002      -1.62416983E-10
  0.717499971      -1.40091327E-10
  0.718750000      -1.07856855E-10
  0.720000029      -6.83625379E-11
  0.721249998      -2.45531720E-11
  0.722500026       2.05414574E-11
  0.723749995       6.40518888E-11
  0.725000024       1.03399622E-10
  0.726249993       1.36407163E-10
  0.727500021       1.61330976E-10
  0.728749990       1.76874959E-10
  0.730000019       1.82146298E-10
  0.731249988       1.76650389E-10
  0.732500017       1.60297428E-10
  0.733749986       1.33395378E-10
  0.735000014       9.66967062E-11
  0.736249983       5.14898853E-11
  0.737500012      -3.63955150E-13
  0.738749981      -5.63482143E-11
  0.740000010      -1.13289357E-10
  0.741249979      -1.67447237E-10
  0.742500007      -2.14696483E-10
  0.743749976      -2.50736015E-10
  0.745000005      -2.71461020E-10
  0.746249974      -2.73378459E-10
  0.747500002      -2.54082311E-10
  0.748749971      -2.12587031E-10
  0.750000000      -1.49817464E-10
  0.751250029      -6.86715199E-11
  0.752499998       2.59370077E-11
  0.753750026       1.27161837E-10
  0.754999995       2.26822269E-10
  0.756250024       3.15880794E-10
  0.757499993       3.85320026E-10
  0.758750021       4.27030800E-10
  0.759999990       4.34731723E-10
  0.761250019       4.04755895E-10
  0.762499988       3.36664641E-10
  0.763750017       2.33675884E-10
  0.764999986       1.02556671E-10
  0.766250014      -4.66240380E-11
  0.767499983      -2.01349992E-10
  0.768750012      -3.47526258E-10
  0.769999981      -4.71046147E-10
  0.771250010      -5.58786406E-10
  0.772499979      -6.00399619E-10
  0.773750007      -5.89389815E-10
  0.774999976      -5.23761590E-10
  0.776250005      -4.06888079E-10
  0.777499974      -2.47105086E-10
  0.778750002      -5.74009243E-11
  0.779999971       1.45517501E-10
  0.781250000       3.43265555E-10
  0.782500029       5.16785115E-10
  0.783749998       6.48838205E-10
  0.785000026       7.25420446E-10
  0.786249995       7.37171935E-10
  0.787500024       6.81126711E-10
  0.788749993       5.60423041E-10
  0.790000021       3.84685811E-10
  0.791249990       1.69203096E-10
  0.792500019      -6.66823749E-11
  0.793749988      -3.00959091E-10
  0.795000017      -5.11285347E-10
  0.796249986      -6.77384593E-10
  0.797500014      -7.82401754E-10
  0.798749983      -8.15759071E-10
  0.800000012      -7.73360931E-10
  0.801249981      -6.58217203E-10
  0.802500010      -4.80309292E-10
  0.803749979      -2.56558191E-10
  0.805000007      -7.51201965E-12
  0.806249976       2.42968340E-10
  0.807500005       4.71357953E-10
  0.808749974       6.55730359E-10
  0.810000002       7.78534237E-10
  0.811249971       8.27908908E-10
  0.812500000       7.99763034E-10
  0.813750029       6.97188030E-10
  0.814999998       5.29888633E-10
  0.816250026       3.15079435E-10
  0.817499995       7.30644781E-11
  0.818750024      -1.73493719E-10
  0.819999993      -3.99685285E-10
  0.821250021      -5.85516802E-10
  0.822499990      -7.14461990E-10
  0.823750019      -7.75376874E-10
  0.824999988      -7.63030417E-10
  0.826250017      -6.80484780E-10
  0.827499986      -5.36656053E-10
  0.828750014      -3.46970203E-10
  0.829999983      -1.29822958E-10
  0.831250012       9.43271988E-11
  0.832499981       3.04226505E-10
  0.833750010       4.82073603E-10
  0.834999979       6.12625728E-10
  0.836250007       6.85595025E-10
  0.837499976       6.95836000E-10
  0.838750005       6.45810683E-10
  0.839999974       5.41505119E-10
  0.841250002       3.94703797E-10
  0.842499971       2.20653829E-10
  0.843750000       3.32230805E-11
  0.845000029      -1.50621862E-10
  0.846249998      -3.14577558E-10
  0.847500026      -4.46789106E-10
  0.848749995      -5.38852407E-10
  0.850000024      -5.84435111E-10
  0.851249993      -5.82615789E-10
  0.852500021      -5.38576572E-10
  0.853749990      -4.54864507E-10
  0.855000019      -3.42143147E-10
  0.856249988      -2.08728507E-10
  0.857500017      -6.45329415E-11
  0.858749986       7.83949641E-11
  0.860000014       2.12290838E-10
  0.861249983       3.25710597E-10
  0.862500012       4.17615470E-10
  0.863749981       4.80499307E-10
  0.865000010       5.05799513E-10
  0.866249979       4.96086727E-10
  0.867500007       4.53538179E-10
  0.868749976       3.72936543E-10
  0.870000005       2.62333794E-10