 -0.200000003       0.00000000    
 -0.198750004       0.00000000    
 -0.197500005       0.00000000    
 -0.196250007       0.00000000    
 -0.194999993       0.00000000    
 -0.193749994       0.00000000    
 -0.192499995       0.00000000    
 -0.191249996       0.00000000    
 -0.189999998       0.00000000    
 -0.188749999       0.00000000    
 -0.187500000       0.00000000    
 -0.186250001       0.00000000    
 -0.185000002       0.00000000    
 -0.183750004       0.00000000    
 -0.182500005       0.00000000    
 -0.181250006       0.00000000    
 -0.180000007       0.00000000    
 -0.178749993       0.00000000    
 -0.177499995       0.00000000    
 -0.176249996       0.00000000    
 -0.174999997       0.00000000    
 -0.173749998       0.00000000    
 -0.172499999       0.00000000    
 -0.171250001       0.00000000    
 -0.170000002       0.00000000    
 -0.168750003       0.00000000    
 -0.167500004       0.00000000    
 -0.166250005       0.00000000    
 -0.165000007       0.00000000    
 -0.163749993       0.00000000    
 -0.162499994       0.00000000    
 -0.161249995       0.00000000    
 -0.159999996       0.00000000    
 -0.158749998       0.00000000    
 -0.157499999       0.00000000    
 -0.156250000       0.00000000    
 -0.155000001       0.00000000    
 -0.153750002       2.80259693E-45
 -0.152500004       2.24207754E-44
 -0.151250005       6.02558340E-44
 -0.150000006       2.28411650E-43
 -0.148750007       6.86636248E-43
 -0.147499993       1.46155430E-42
 -0.146249995       2.36959570E-42
 -0.144999996       2.90208912E-42
 -0.143749997       2.25749183E-42
 -0.142499998      -1.02855307E-42
 -0.141249999      -1.00010671E-41
 -0.140000001      -2.93039535E-41
 -0.138750002      -6.19065636E-41
 -0.137500003      -1.05562616E-40
 -0.136250004      -1.44622409E-40
 -0.135000005      -1.40306410E-40
 -0.133750007      -1.72443789E-41
 -0.132499993       3.45819442E-40
 -0.131249994       1.10243653E-39
 -0.129999995       2.38626415E-39
 -0.128749996       4.18170023E-39
 -0.127499998       6.09895398E-39
 -0.126249999       7.04578613E-39
 -0.125000000       4.85942281E-39
 -0.123750001      -3.93598114E-39
 -0.122500002      -2.39362153E-38
 -0.121250004      -5.97407054E-38
 -0.119999997      -1.13331773E-37
 -0.118749999      -1.79466391E-37
 -0.117500000      -2.39062751E-37
 -0.116250001      -2.51595225E-37
 -0.115000002      -1.49238567E-37
 -0.113750003       1.62234478E-37
 -0.112499997       7.88443787E-37
 -0.111249998       1.80859858E-36
 -0.109999999       3.20758967E-36
 -0.108750001       4.77686961E-36
 -0.107500002       5.99610241E-36
 -0.106250003       5.92842682E-36
 -0.104999997       3.18918670E-36
 -0.103749998      -3.92473593E-36
 -0.102499999      -1.70416318E-35
 -0.101250000      -3.69660917E-35
 -0.100000001      -6.25428714E-35
  -9.87500027E-02  -8.92282061E-35
  -9.74999964E-02  -1.07663459E-34
  -9.62499976E-02  -1.02804374E-34
  -9.49999988E-02  -5.44250326E-35
  -9.37500000E-02   6.00048655E-35
  -9.25000012E-02   2.59113829E-34
  -9.12500024E-02   5.47562855E-34
  -9.00000036E-02   9.02537767E-34
  -8.87499973E-02   1.25875195E-33
  -8.74999985E-02   1.49593466E-33
  -8.62499997E-02   1.43495406E-33
  -8.50000009E-02   8.50431408E-34
  -8.37500021E-02  -4.91956279E-34
  -8.25000033E-02  -2.76735964E-33
  -8.12499970E-02  -5.99216547E-33
  -7.99999982E-02  -9.90162826E-33
  -7.87499994E-02  -1.38263600E-32
  -7.75000006E-02  -1.66040884E-32
  -7.62500018E-02  -1.65765422E-32
  -7.50000030E-02  -1.17285706E-32
  -7.37499967E-02  -2.18614901E-35
  -7.24999979E-02   2.00467499E-32
  -7.12499991E-02   4.86764599E-32
  -7.00000003E-02   8.38630114E-32
  -6.87500015E-02   1.20530548E-31
  -6.75000027E-02   1.49942286E-31
  -6.62499964E-02   1.59706212E-31
  -6.49999976E-02   1.34718188E-31
  -6.37499988E-02   5.93401950E-32
  -6.25000000E-02  -7.90285675E-32
  -6.12500012E-02  -2.85079268E-31
  -5.99999987E-02  -5.49864425E-31
  -5.87499999E-02  -8.45086023E-31
  -5.75000010E-02  -1.11872164E-30
  -5.62499985E-02  -1.29368720E-30
  -5.49999997E-02  -1.27143622E-30
  -5.37500009E-02  -9.42302697E-31
  -5.24999984E-02  -2.03885310E-31
  -5.12499996E-02   1.01224386E-30
  -5.00000007E-02   2.70679655E-30
  -4.87499982E-02   4.77538731E-30
  -4.74999994E-02   6.97341993E-30
  -4.62500006E-02   8.89181091E-30
  -4.50000018E-02   9.95450520E-30
  -4.37499993E-02   9.45019593E-30
  -4.25000004E-02   6.61043405E-30
  -4.12500016E-02   7.43343836E-31
  -3.99999991E-02  -8.57451546E-30
  -3.87500003E-02  -2.12567807E-29
  -3.75000015E-02  -3.64410441E-29
  -3.62499990E-02  -5.22424447E-29
  -3.50000001E-02  -6.55936049E-29
  -3.37500013E-02  -7.22567267E-29
  -3.24999988E-02  -6.71043706E-29
  -3.12500000E-02  -4.47588827E-29
  -2.99999993E-02  -6.48554887E-31
  -2.87500005E-02   6.75270099E-29
  -2.74999999E-02   1.58031592E-28
  -2.62499992E-02   2.63270531E-28
  -2.50000004E-02   3.68306970E-28
  -2.37499997E-02   4.50249969E-28
  -2.25000009E-02   4.79133815E-28
  -2.12500002E-02   4.20888493E-28
  -1.99999996E-02   2.42823294E-28
  -1.87500007E-02  -7.83288407E-29
  -1.75000001E-02  -5.46344773E-28
  -1.62499994E-02  -1.13471960E-27
  -1.49999997E-02  -1.77728166E-27
  -1.37499999E-02  -2.36308985E-27
  -1.25000002E-02  -2.73891235E-27
  -1.12500004E-02  -2.72243621E-27
  -9.99999978E-03  -2.12838254E-27
  -8.75000004E-03  -8.07751052E-28
  -7.49999983E-03   1.30250295E-27
  -6.25000009E-03   4.12570633E-27
  -4.99999989E-03   7.39780738E-27
  -3.74999992E-03   1.06392291E-26
  -2.49999994E-03   1.31612275E-26
  -1.24999997E-03   1.41205948E-26
   0.00000000       1.26317385E-26
   1.24999997E-03   7.93627890E-27
   2.49999994E-03  -3.82368763E-28
   3.74999992E-03  -1.21671002E-26
   4.99999989E-03  -2.64807849E-26
   6.25000009E-03  -4.14802169E-26
   7.49999983E-03  -5.44296398E-26
   8.75000004E-03  -6.19065375E-26
   9.99999978E-03  -6.02316748E-26
   1.12500004E-02  -4.61199023E-26
   1.25000002E-02  -1.75000549E-26
   1.37499999E-02   2.56028782E-26
   1.49999997E-02   8.02827564E-26
   1.62499994E-02   1.40261848E-25
   1.75000001E-02   1.95902402E-25
   1.87500007E-02   2.34897534E-25
   1.99999996E-02   2.43741429E-25
   2.12500002E-02   2.09953777E-25
   2.25000009E-02   1.24871381E-25
   2.37499997E-02  -1.33579959E-26
   2.50000004E-02  -1.97106573E-25
   2.62499992E-02  -4.07556802E-25
   2.74999999E-02  -6.14598721E-25
   2.87500005E-02  -7.78869834E-25
   2.99999993E-02  -8.56218287E-25
   3.12500000E-02  -8.04480105E-25
   3.24999988E-02  -5.91976458E-25
   3.37500013E-02  -2.06624500E-25
   3.50000001E-02   3.35890219E-25
   3.62499990E-02   9.86702388E-25
   3.75000015E-02   1.66293240E-24
   3.87500003E-02   2.25288340E-24
   3.99999991E-02   2.62798479E-24
   4.12500016E-02   2.66112030E-24
   4.25000004E-02   2.24968477E-24
   4.37499993E-02   1.34039656E-24
   4.50000018E-02  -4.81987450E-26
   4.62500006E-02  -1.81019734E-24
   4.74999994E-02  -3.74831874E-24
   4.87499982E-02  -5.58493681E-24
   5.00000007E-02  -6.98979987E-24
   5.12499996E-02  -7.62344450E-24
   5.24999984E-02  -7.19225629E-24
   5.37500009E-02  -5.50815658E-24
   5.49999997E-02  -2.54355380E-24
   5.62499985E-02   1.52891213E-24
   5.75000010E-02   6.32176248E-24
   5.87499999E-02   1.12506766E-23
   5.99999987E-02   1.55882985E-23
   6.12500012E-02   1.85514147E-23
   6.25000000E-02   1.94129029E-23
   6.37499988E-02   1.76241071E-23
   6.49999976E-02   1.29292441E-23
   6.62499964E-02   5.45202874E-24
   6.75000027E-02  -4.26339403E-24
   6.87500015E-02  -1.52697407E-23
   7.00000003E-02  -2.62962728E-23
   7.12499991E-02  -3.58849828E-23
   7.24999979E-02  -4.25672311E-23
   7.37499967E-02  -4.50566552E-23
   7.50000030E-02  -4.24297231E-23
   7.62500018E-02  -3.42661172E-23
   7.75000006E-02  -2.07273739E-23
   7.87499994E-02  -2.56321399E-24
   7.99999982E-02   1.89511574E-23
   8.12499970E-02   4.21298361E-23
   8.25000033E-02   6.50159721E-23
   8.37500021E-02   8.55158164E-23
   8.50000009E-02   1.01501370E-22
   8.62499997E-02   1.10869919E-22
   8.74999985E-02   1.11569431E-22
   8.87499973E-02   1.01621510E-22
   9.00000036E-02   7.91930458E-23
   9.12500024E-02   4.27755345E-23
   9.25000012E-02  -8.47759706E-24
   9.37500000E-02  -7.42353137E-23
   9.49999988E-02  -1.52324459E-22
   9.62499976E-02  -2.38010316E-22
   9.74999964E-02  -3.23384024E-22
   9.87500027E-02  -3.97073326E-22
  0.100000001      -4.44517693E-22
  0.101250000      -4.49025080E-22
  0.102499999      -3.93744813E-22
  0.103749998      -2.64546410E-22
  0.104999997      -5.35986746E-23
  0.106250003       2.36780198E-22
  0.107500002       5.90642096E-22
  0.108750001       9.76094630E-22
  0.109999999       1.34499749E-21
  0.111249998       1.63541513E-21
  0.112499997       1.77729993E-21
  0.113750003       1.70143540E-21
  0.115000002       1.35108755E-21
  0.116250001       6.95165636E-22
  0.117500000      -2.58922779E-22
  0.118749999      -1.45500252E-21
  0.119999997      -2.78291387E-21
  0.121250004      -4.08062211E-21
  0.122500002      -5.14529848E-21
  0.123750001      -5.75393539E-21
  0.125000000      -5.69263274E-21
  0.126249999      -4.79204147E-21
  0.127499998      -2.96483867E-21
  0.128749996      -2.39782640E-22
  0.129999995       3.21382872E-21
  0.131249994       7.07737671E-21
  0.132499993       1.08948080E-20
  0.133750007       1.41080452E-20
  0.135000005       1.61157531E-20
  0.136250004       1.63516563E-20
  0.137500003       1.43748222E-20
  0.138750002       9.96095417E-21
  0.140000001       3.18134855E-21
  0.141249999      -5.54459730E-21
  0.142499998      -1.54362727E-20
  0.143749997      -2.53877627E-20
  0.144999996      -3.40570098E-20
  0.146249995      -4.00055531E-20
  0.147499993      -4.18783643E-20
  0.148750007      -3.86057470E-20
  0.150000006      -2.96029976E-20
  0.151250005      -1.49397204E-20
  0.152500004       4.54977529E-21
  0.153750002       2.72400334E-20
  0.155000001       5.07895262E-20
  0.156250000       7.23236774E-20
  0.157499999       8.87187202E-20
  0.158749998       9.69645929E-20
  0.159999996       9.45714173E-20
  0.161249995       7.99732627E-20
  0.162499994       5.28765255E-20
  0.163749993       1.45002580E-20
  0.165000007      -3.23376502E-20
  0.166250005      -8.33211470E-20
  0.167500004      -1.32936933E-19
  0.168750003      -1.74966032E-19
  0.170000002      -2.03131544E-19
  0.171250001      -2.11844936E-19
  0.172499999      -1.96974180E-19
  0.173749998      -1.56545340E-19
  0.174999997      -9.12865473E-20
  0.176249996      -4.93082929E-21
  0.177499995       9.57875408E-20
  0.178749993       2.01481216E-19
  0.180000007       3.00806349E-19
  0.181250006       3.81473106E-19
  0.182500005       4.31497241E-19
  0.183750004       4.40585346E-19
  0.185000002       4.01520035E-19
  0.186250001       3.11394571E-19
  0.187500000       1.72545533E-19
  0.188749999      -6.95550974E-21
  0.189999998      -2.13362088E-19
  0.191249996      -4.27932403E-19
  0.192499995      -6.28241607E-19
  0.193749994      -7.90077581E-19
  0.194999993      -8.89803251E-19
  0.196250007      -9.07005196E-19
  0.197500005      -8.27192658E-19
  0.198750004      -6.44267404E-19
  0.200000003      -3.62469123E-19
  0.201250002       2.49392228E-21
  0.202500001       4.23379782E-19
  0.203749999       8.62591387E-19
  0.204999998       1.27467416E-18
  0.206249997       1.61007666E-18
  0.207499996       1.81997023E-18
  0.208749995       1.86177139E-18
  0.209999993       1.70486691E-18
  0.211250007       1.33593484E-18
  0.212500006       7.63190851E-19
  0.213750005       1.88959750E-20
  0.215000004      -8.40453656E-19
  0.216250002      -1.73666528E-18
  0.217500001      -2.57527877E-18
  0.218750000      -3.25373583E-18
  0.219999999      -3.67179105E-18
  0.221249998      -3.74331280E-18
  0.222499996      -3.40831996E-18
  0.223749995      -2.64387562E-18
  0.224999994      -1.47237405E-18
  0.226249993       3.41646079E-20
  0.227500007       1.75492074E-18
  0.228750005       3.52691326E-18
  0.230000004       5.15754474E-18
  0.231250003       6.44245856E-18
  0.232500002       7.18738310E-18
  0.233750001       7.23195655E-18
  0.234999999       6.47301710E-18
  0.236249998       4.88452137E-18
  0.237499997       2.53127297E-18
  0.238749996      -4.26008123E-19
  0.239999995      -3.73605843E-18
  0.241249993      -7.07366148E-18
  0.242500007      -1.00670064E-17
  0.243750006      -1.23340306E-17
  0.245000005      -1.35246718E-17
  0.246250004      -1.33648829E-17
  0.247500002      -1.16975192E-17
  0.248750001      -8.51499309E-18
  0.250000000      -3.97892362E-18
  0.251249999       1.57705096E-18
  0.252499998       7.66364061E-18
  0.253749996       1.36718430E-17
  0.254999995       1.89266683E-17
  0.256249994       2.27546038E-17
  0.257499993       2.45587988E-17
  0.258749992       2.38943759E-17
  0.259999990       2.05354519E-17
  0.261249989       1.45254785E-17
  0.262499988       6.20348071E-18
  0.263749987      -3.79933775E-18
  0.264999986      -1.45954398E-17
  0.266250014      -2.51087829E-17
  0.267500013      -3.41706227E-17
  0.268750012      -4.06357704E-17
  0.270000011      -4.35088433E-17
  0.271250010      -4.20678913E-17
  0.272500008      -3.59717853E-17
  0.273750007      -2.53381701E-17
  0.275000006      -1.07806176E-17
  0.276250005       6.60315411E-18
  0.277500004       2.52957125E-17
  0.278750002       4.34754980E-17
  0.280000001       5.91765076E-17
  0.281250000       7.04796792E-17
  0.282499999       7.57190082E-17
  0.283749998       7.36822777E-17
  0.284999996       6.37848499E-17
  0.286249995       4.61956682E-17
  0.287499994       2.18976446E-17
  0.288749993      -7.33031660E-18
  0.289999992      -3.90155717E-17
  0.291249990      -7.01758591E-17
  0.292499989      -9.75742978E-17
  0.293749988      -1.18025783E-16
  0.294999987      -1.28728190E-16
  0.296249986      -1.27586746E-16
  0.297500014      -1.13497412E-16
  0.298750013      -8.65564506E-17
  0.300000012      -4.81676436E-17
  0.301250011      -1.02651687E-18
  0.302500010       5.10282029E-17
  0.303750008       1.03293127E-16
  0.305000007       1.50592241E-16
  0.306250006       1.87752953E-16
  0.307500005       2.10125144E-16
  0.308750004       2.14094658E-16
  0.310000002       1.97538539E-16
  0.311250001       1.60170767E-16
  0.312500000       1.03734180E-16
  0.313749999       3.20059936E-17
  0.314999998      -4.93995537E-17
  0.316249996      -1.33428600E-16
  0.317499995      -2.12161716E-16
  0.318749994      -2.77521716E-16
  0.319999993      -3.22055214E-16
  0.321249992      -3.39715640E-16
  0.322499990      -3.26569874E-16
  0.323749989      -2.81352237E-16
  0.324999988      -2.05798672E-16
  0.326249987      -1.04711358E-16
  0.327499986       1.42730395E-17
  0.328750014       1.41210848E-16
  0.330000013       2.64644248E-16
  0.331250012       3.72600820E-16
  0.332500011       4.53716057E-16
  0.333750010       4.98377193E-16
  0.335000008       4.99777603E-16
  0.336250007       4.54771301E-16
  0.337500006       3.64429811E-16
  0.338750005       2.34226580E-16
  0.340000004       7.38044424E-17
  0.341250002      -1.03678851E-16
  0.342500001      -2.82591446E-16
  0.343750000      -4.46178364E-16
  0.344999999      -5.78110151E-16
  0.346249998      -6.64090189E-16
  0.347499996      -6.93365871E-16
  0.348749995      -6.59988485E-16
  0.349999994      -5.63680415E-16
  0.351249993      -4.10198733E-16
  0.352499992      -2.11126416E-16
  0.353749990       1.69245438E-17
  0.354999989       2.53656430E-16
  0.356249988       4.76875473E-16
  0.357499987       6.64576651E-16
  0.358749986       7.97132436E-16
  0.360000014       8.59370670E-16
  0.361250013       8.42324185E-16
  0.362500012       7.44453975E-16
  0.363750011       5.72188279E-16
  0.365000010       3.39680276E-16
  0.366250008       6.77619409E-17
  0.367500007      -2.17847146E-16
  0.368750006      -4.88935528E-16
  0.370000005      -7.17587043E-16
  0.371250004      -8.79091503E-16
  0.372500002      -9.54680565E-16
  0.373750001      -9.33789556E-16
  0.375000000      -8.15577585E-16
  0.376249999      -6.09499180E-16
  0.377499998      -3.34809360E-16
  0.378749996      -1.89908079E-17
  0.379999995       3.04793662E-16
  0.381249994       6.01007940E-16
  0.382499993       8.35497311E-16
  0.383749992       9.79312706E-16
  0.384999990       1.01219241E-15
  0.386249989       9.25301227E-16
  0.387499988       7.22882375E-16
  0.388749987       4.22572005E-16
  0.389999986       5.42577013E-17
  0.391250014      -3.42488005E-16
  0.392500013      -7.22211472E-16
  0.393750012      -1.03828367E-15
  0.395000011      -1.24805297E-15
  0.396250010      -1.31791339E-15
  0.397500008      -1.22773000E-15
  0.398750007      -9.74096360E-16
  0.400000006      -5.71991079E-16
  0.401250005      -5.45447660E-17
  0.402500004       5.29189022E-16
  0.403750002       1.11835825E-15
  0.405000001       1.64602272E-15
  0.406250000       2.04595260E-15
  0.407499999       2.25987099E-15
  0.408749998       2.24440565E-15
  0.409999996       1.97699523E-15
  0.411249995       1.46005748E-15
  0.412499994       7.22859823E-16
  0.413749993      -1.79269137E-16
  0.414999992      -1.16849709E-15
  0.416249990      -2.15065032E-15
  0.417499989      -3.02353810E-15
  0.418749988      -3.68674944E-15
  0.419999987      -4.05203537E-15
  0.421249986      -4.05327330E-15
  0.422500014      -3.65497808E-15
  0.423750013      -2.85840289E-15
  0.425000012      -1.70444448E-15
  0.426250011      -2.72830742E-16
  0.427500010       1.32260383E-15
  0.428750008       2.94237414E-15
  0.430000007       4.43297319E-15
  0.431250006       5.64076086E-15
  0.432500005       6.42692009E-15
  0.433750004       6.68209173E-15
  0.435000002       6.33923481E-15
  0.436250001       5.38332594E-15
  0.437500000       3.85671762E-15
  0.438749999       1.85931906E-15
  0.439999998      -4.56793910E-16
  0.441249996      -2.89822254E-15
  0.442499995      -5.24587706E-15
  0.443749994      -7.27421307E-15
  0.444999993      -8.77245511E-15
  0.446249992      -9.56587850E-15
  0.447499990      -9.53506090E-15
  0.448749989      -8.63108701E-15
  0.449999988      -6.88492605E-15
  0.451249987      -4.40965606E-15
  0.452499986      -1.39482885E-15
  0.453750014       1.90701167E-15
  0.455000013       5.20085387E-15
  0.456250012       8.17523082E-15
  0.457500011       1.05315130E-14
  0.458750010       1.20137893E-14
  0.460000008       1.24364045E-14
  0.461250007       1.17062689E-14
  0.462500006       9.83737543E-15
  0.463750005       6.95557961E-15
  0.465000004       3.29255556E-15
  0.466250002      -8.31142292E-16
  0.467500001      -5.03289190E-15
  0.468750000      -8.90259834E-15
  0.469999999      -1.20420726E-14
  0.471249998      -1.41055185E-14
  0.472499996      -1.48371153E-14
  0.473749995      -1.41017315E-14
  0.474999994      -1.19052615E-14
  0.476249993      -8.40190869E-15
  0.477499992      -3.88690502E-15
  0.478749990       1.22546239E-15
  0.479999989       6.43716664E-15
  0.481249988       1.12123284E-14
  0.482499987       1.50296577E-14
  0.483749986       1.74365527E-14
  0.485000014       1.80994830E-14
  0.486250013       1.68453423E-14
  0.487500012       1.36890739E-14
  0.488750011       8.84392521E-15
  0.490000010       2.71224651E-15
  0.491250008      -4.14343488E-15
  0.492500007      -1.10473984E-14
  0.493750006      -1.72721893E-14
  0.495000005      -2.21093234E-14
  0.496250004      -2.49427588E-14
  0.497500002      -2.53179825E-14
  0.498750001      -2.29995703E-14
  0.500000000      -1.80107495E-14
  0.501250029      -1.06498486E-14
  0.502499998      -1.48048230E-15
  0.503750026       8.70532182E-15
  0.504999995       1.89492502E-14
  0.506250024       2.82097056E-14
  0.507499993       3.54589947E-14
  0.508750021       3.97861946E-14
  0.509999990       4.04960557E-14
  0.511250019       3.71940739E-14
  0.512499988       2.98485229E-14
  0.513750017       1.88218514E-14
  0.514999986       4.86621911E-15
  0.516250014      -1.09188832E-14
  0.517499983      -2.71655579E-14
  0.518750012      -4.23480153E-14
  0.519999981      -5.49163444E-14
  0.521250010      -6.34424831E-14
  0.522499979      -6.67653460E-14
  0.523750007      -6.41213563E-14
  0.524999976      -5.52469684E-14
  0.526250005      -4.04415847E-14
  0.527499974      -2.05821806E-14
  0.528750002       2.91508739E-15
  0.529999971       2.81863613E-14
  0.531250000       5.30597633E-14
  0.532500029       7.52335477E-14
  0.533749998       9.24787794E-14
  0.535000026       1.02849397E-13
  0.536249995       1.04880690E-13
  0.537500024       9.77571431E-14
  0.538749993       8.14321551E-14
  0.540000021       5.66854811E-14
  0.541249990       2.51091143E-14
  0.542500019      -1.09816746E-14
  0.543749988      -4.87087821E-14
  0.545000017      -8.48530840E-14
  0.546249986      -1.16121278E-13
  0.547500014      -1.39436287E-13
  0.548749983      -1.52226444E-13
  0.550000012      -1.52687203E-13
  0.551249981      -1.39990152E-13
  0.552500010      -1.14417332E-13
  0.553749979      -7.74044118E-14
  0.555000007      -3.14834760E-14
  0.556249976       1.98753147E-14
  0.557500005       7.25149514E-14
  0.558749974       1.21918575E-13
  0.560000002       1.63587460E-13
  0.561249971       1.93439327E-13
  0.562500000       2.08192757E-13
  0.563750029       2.05702832E-13
  0.564999998       1.85215518E-13
  0.566250026       1.47513756E-13
  0.567499995       9.49363472E-14
  0.568750024       3.12608148E-14
  0.569999993      -3.85469922E-14
  0.571250021      -1.08701920E-13
  0.572499990      -1.73061259E-13
  0.573750019      -2.25643817E-13
  0.574999988      -2.61163947E-13
  0.576250017      -2.75534505E-13
  0.577499986      -2.66292983E-13
  0.578750014      -2.32909124E-13
  0.579999983      -1.76940751E-13
  0.581250012      -1.02015598E-13
  0.582499981      -1.36312868E-14
  0.583750010       8.12192991E-14
  0.584999979       1.74574100E-13
  0.586250007       2.58141842E-13
  0.587499976       3.24006474E-13
  0.588750005       3.65338131E-13
  0.589999974       3.77049086E-13
  0.591250002       3.56334564E-13
  0.592499971       3.03045024E-13
  0.593750000       2.19848309E-13
  0.595000029       1.12156181E-13
  0.596249998      -1.21912791E-14
  0.597500026      -1.43469085E-13
  0.598749995      -2.70803535E-13
  0.600000024      -3.83047652E-13
  0.601249993      -4.69727393E-13
  0.602500021      -5.21980137E-13
  0.603749990      -5.33403616E-13
  0.605000019      -5.00737093E-13
  0.606249988      -4.24306830E-13
  0.607500017      -3.08185037E-13
  0.608749986      -1.60033743E-13
  0.610000014       9.36894249E-15
  0.611249983       1.86895109E-13
  0.612500012       3.58074329E-13
  0.613749981       5.08266660E-13
  0.615000010       6.23907664E-13
  0.616249979       6.93721393E-13
  0.617500007       7.09794203E-13
  0.618749976       6.68410097E-13
  0.620000005       5.70563182E-13
  0.621249974       4.22087739E-13
  0.622500002       2.33376523E-13
  0.623749971       1.86923519E-14
  0.625000000      -2.04885832E-13
  0.626250029      -4.18808082E-13
  0.627499998      -6.04586043E-13
  0.628750026      -7.45388560E-13
  0.629999995      -8.27564363E-13
  0.631250024      -8.41956062E-13
  0.632499993      -7.84882521E-13
  0.633750021      -6.58689141E-13
  0.634999990      -4.71799141E-13
  0.636250019      -2.38240363E-13
  0.637499988       2.33341788E-14
  0.638750017       2.91068791E-13
  0.639999986       5.41665237E-13
  0.641250014       7.52341874E-13
  0.642499983       9.02830165E-13
  0.643750012       9.77236196E-13
  0.644999981       9.65600213E-13
  0.646250010       8.65007176E-13
  0.647499979       6.80133304E-13
  0.648750007       4.23159744E-13
  0.649999976       1.13035774E-13
  0.651250005      -2.25868925E-13
  0.652499974      -5.65629737E-13
  0.653750002      -8.77007939E-13
  0.654999971      -1.13188679E-12
  0.656250000      -1.30569969E-12
  0.657500029      -1.37964054E-12
  0.658749998      -1.34245805E-12
  0.660000026      -1.19166591E-12
  0.661249995      -9.34044725E-13
  0.662500024      -5.85370782E-13
  0.663749993      -1.69370025E-13
  0.665000021       2.84036656E-13
  0.666249990       7.41067364E-13
  0.667500019       1.16680970E-12
  0.668749988       1.52812572E-12
  0.670000017       1.79648863E-12
  0.671249986       1.95050833E-12
  0.672500014       1.97792347E-12
  0.673749983       1.87688016E-12
  0.675000012       1.65637285E-12
  0.676249981       1.33579378E-12
  0.677500010       9.43612376E-13
  0.678749979       5.15282153E-13
  0.680000007       9.05385792E-14
  0.681249976      -2.89690581E-13
  0.682500005      -5.86507351E-13
  0.683749974      -7.66125770E-13
  0.685000002      -8.02551059E-13
  0.686249971      -6.79623133E-13
  0.687500000      -3.92243746E-13
  0.688750029       5.33247186E-14
  0.689999998       6.40125648E-13
  0.691250026       1.34209278E-12
  0.692499995       2.12642707E-12
  0.693750024       2.95657379E-12
  0.694999993       3.79555545E-12
  0.696250021       4.60938275E-12
  0.697499990       5.37026283E-12
  0.698750019       6.05933619E-12
  0.699999988       6.66871636E-12
  0.701250017       7.20266338E-12
  0.702499986       7.67779416E-12
  0.703750014       8.12232313E-12
  0.704999983       8.57439380E-12
  0.706250012       9.07965456E-12
  0.707499981       9.68828490E-12
  0.708750010       1.04517298E-11
  0.709999979       1.14194236E-11
  0.711250007       1.26357865E-11
  0.712499976       1.41377526E-11
  0.713750005       1.59530444E-11
  0.714999974       1.80993415E-11
  0.716250002       2.05844404E-11
  0.717499971       2.34073854E-11
  0.718750000       2.65604864E-11
  0.720000029       3.00320879E-11
  0.721249998       3.38098646E-11
  0.722500026       3.78843554E-11
  0.723749995       4.22525175E-11
  0.725000024       4.69209463E-11
  0.726249993       5.19085538E-11
  0.727500021       5.72484872E-11
  0.728749990       6.29891000E-11
  0.730000019       6.91939145E-11
  0.731249988       7.59406080E-11
  0.732500017       8.33190600E-11
  0.733749986       9.14286147E-11
  0.735000014       1.00374778E-10
  0.736249983       1.10265644E-10
  0.737500012       1.21208349E-10
  0.738749981       1.33305755E-10
  0.740000010       1.46653759E-10
  0.741249979       1.61339470E-10
  0.742500007       1.77440340E-10
  0.743749976       1.95024497E-10
  0.745000005       2.14152182E-10
  0.746249974       2.34878339E-10
  0.747500002       2.57256216E-10
  0.748749971       2.81341617E-10
  0.750000000       3.07197628E-10
  0.751250029       3.34899608E-10
  0.752499998       3.64539759E-10
  0.753750026       3.96231048E-10
  0.754999995       4.30110308E-10
  0.756250024       4.66340078E-10
  0.757499993       5.05108899E-10
  0.758750021       5.46630297E-10
  0.759999990       5.91140026E-10
  0.761250019       6.38891995E-10
  0.762499988       6.90153212E-10
  0.763750017       7.45197570E-10
  0.764999986       8.04299405E-10
  0.766250014       8.67727279E-10
  0.767499983       9.35738265E-10
  0.768750012       1.00857289E-09
  0.769999981       1.08645215E-09
  0.771250010       1.16957577E-09
  0.772499979       1.25812261E-09
  0.773750007       1.35225320E-09
  0.774999976       1.45211365E-09
  0.776250005       1.55784152E-09
  0.777499974       1.66957248E-09
  0.778750002       1.78744797E-09
  0.779999971       1.91162242E-09
  0.781250000       2.04227035E-09
  0.782500029       2.17959117E-09
  0.783749998       2.32381292E-09
  0.785000026       2.47519338E-09
  0.786249995       2.63401900E-09
  0.787500024       2.80060064E-09
  0.788749993       2.97526737E-09
  0.790000021       3.15835869E-09
  0.791249990       3.35021411E-09
  0.792500019       3.55116270E-09
  0.793749988       3.76151243E-09
  0.795000017       3.98153954E-09
  0.796249986       4.21148050E-09
  0.797500014       4.45152537E-09
  0.798749983       4.70181361E-09
  0.800000012       4.96243313E-09
  0.801249981       5.23342214E-09
  0.802500010       5.51477264E-09
  0.803749979       5.80643800E-09
  0.805000007       6.10834094E-09
  0.806249976       6.42038200E-09
  0.807500005       6.74244927E-09
  0.808749974       7.07442593E-09
  0.810000002       7.41619699E-09
  0.811249971       7.76765408E-09
  0.812500000       8.12869594E-09
  0.813750029       8.49922888E-09
  0.814999998       8.87916141E-09
  0.816250026       9.26839938E-09
  0.817499995       9.66683711E-09
  0.818750024       1.00743467E-08
  0.819999993       1.04907709E-08
  0.821250021       1.09159126E-08
  0.822499990       1.13495267E-08
  0.823750019       1.17913137E-08
  0.824999988       1.22409149E-08
  0.826250017       1.26979121E-08
  0.827499986       1.31618298E-08
  0.828750014       1.36321390E-08
  0.829999983       1.41082612E-08
  0.831250012       1.45895793E-08
  0.832499981       1.50754467E-08
  0.833750010       1.55651918E-08
  0.834999979       1.60581290E-08
  0.836250007       1.65535656E-08
  0.837499976       1.70508070E-08
  0.838750005       1.75491586E-08
  0.839999974       1.80479294E-08
  0.841250002       1.85464319E-08
  0.842499971       1.90439788E-08
  0.843750000       1.95398808E-08
  0.845000029       2.00334416E-08
  0.846249998       2.05239541E-08
  0.847500026       2.10107025E-08
  0.848749995       2.14929585E-08
  0.850000024       2.19699796E-08
  0.851249993       2.24410126E-08
  0.852500021       2.29052937E-08
  0.853749990       2.33620590E-08
  0.855000019       2.38105464E-08
  0.856249988       2.42499958E-08
  0.857500017       2.46796645E-08
  0.858749986       2.50988261E-08
  0.860000014       2.55067771E-08
  0.861249983       2.59028461E-08
  0.862500012       2.62863935E-08
  0.863749981       2.66568172E-08
  0.865000010       2.70135505E-08
  0.866249979       2.73560605E-08
  0.867500007       2.76838570E-08
  0.868749976       2.79964905E-08
  0.870000005       2.82935488E-08