 -0.200000003       0.00000000    
 -0.198750004       0.00000000    
 -0.197500005       0.00000000    
 -0.196250007       0.00000000    
 -0.194999993       0.00000000    
 -0.193749994       0.00000000    
 -0.192499995       0.00000000    
 -0.191249996       0.00000000    
 -0.189999998       0.00000000    
 -0.188749999       0.00000000    
 -0.187500000      -2.04029056E-42
 -0.186250001      -4.03335737E-41
 -0.185000002      -4.17686435E-40
 -0.183750004      -3.01581710E-39
 -0.182500005      -1.70424868E-38
 -0.181250006      -8.01911599E-38
 -0.180000007      -3.26290621E-37
 -0.178749993      -1.17692587E-36
 -0.177499995      -3.82792267E-36
 -0.176249996      -1.13626208E-35
 -0.174999997      -3.10498137E-35
 -0.173749998      -7.86017658E-35
 -0.172499999      -1.85164352E-34
 -0.171250001      -4.07180452E-34
 -0.170000002      -8.37444308E-34
 -0.168750003      -1.61217581E-33
 -0.167500004      -2.90399028E-33
 -0.166250005      -4.88599039E-33
 -0.165000007      -7.65209354E-33
 -0.163749993      -1.10899230E-32
 -0.162499994      -1.47325383E-32
 -0.161249995      -1.76667706E-32
 -0.159999996      -1.86380889E-32
 -0.158749998      -1.65296958E-32
 -0.157499999      -1.13408639E-32
 -0.156250000      -5.55702906E-33
 -0.155000001      -5.31315292E-33
 -0.153750002      -2.00040618E-32
 -0.152500004      -5.81733758E-32
 -0.151250005      -1.17084410E-31
 -0.150000006      -1.64139719E-31
 -0.148750007      -1.11291620E-31
 -0.147499993       2.10333931E-31
 -0.146249995       1.05910179E-30
 -0.144999996       2.74746320E-30
 -0.143749997       5.52694084E-30
 -0.142499998       9.35981340E-30
 -0.141249999       1.35654741E-29
 -0.140000001       1.63805909E-29
 -0.138750002       1.45576501E-29
 -0.137500003       3.23911437E-30
 -0.136250004      -2.35418575E-29
 -0.135000005      -7.13190395E-29
 -0.133750007      -1.42253435E-28
 -0.132499993      -2.30708448E-28
 -0.131249994      -3.17797676E-28
 -0.129999995      -3.66199907E-28
 -0.128749996      -3.17567576E-28
 -0.127499998      -9.58383064E-29
 -0.126249999       3.79728842E-28
 -0.125000000       1.16848808E-27
 -0.123750001       2.26815248E-27
 -0.122500002       3.56340219E-27
 -0.121250004       4.77269437E-27
 -0.119999997       5.41028812E-27
 -0.118749999       4.78786223E-27
 -0.117500000       2.08449869E-27
 -0.116250001      -3.48828091E-27
 -0.115000002      -1.24118874E-26
 -0.113750003      -2.44868418E-26
 -0.112499997      -3.84080813E-26
 -0.111249998      -5.13850959E-26
 -0.109999999      -5.89506079E-26
 -0.108750001      -5.51361449E-26
 -0.107500002      -3.31956952E-26
 -0.106250003       1.29896533E-26
 -0.104999997       8.68079796E-26
 -0.103749998       1.86282009E-25
 -0.102499999       3.01316664E-25
 -0.101250000       4.11509168E-25
 -0.100000001       4.85429305E-25
  -9.87500027E-02   4.82385436E-25
  -9.74999964E-02   3.57581576E-25
  -9.62499976E-02   7.11715301E-26
  -9.49999988E-02  -3.99026825E-25
  -9.37500000E-02  -1.04244813E-24
  -9.25000012E-02  -1.80087025E-24
  -9.12500024E-02  -2.55744919E-24
  -9.00000036E-02  -3.13435185E-24
  -8.87499973E-02  -3.30379148E-24
  -8.74999985E-02  -2.81633618E-24
  -8.62499997E-02  -1.44803298E-24
  -8.50000009E-02   9.35831214E-25
  -8.37500021E-02   4.30742746E-24
  -8.25000033E-02   8.40603160E-24
  -8.12499970E-02   1.26879844E-23
  -7.99999982E-02   1.63172833E-23
  -7.87499994E-02   1.82167058E-23
  -7.75000006E-02   1.71942600E-23
  -7.62500018E-02   1.21492137E-23
  -7.50000030E-02   2.34618849E-24
  -7.37499967E-02  -1.22737985E-23
  -7.24999979E-02  -3.07969783E-23
  -7.12499991E-02  -5.11241883E-23
  -7.00000003E-02  -6.99201625E-23
  -6.87500015E-02  -8.27988848E-23
  -6.75000027E-02  -8.47979151E-23
  -6.62499964E-02  -7.11540672E-23
  -6.49999976E-02  -3.83350523E-23
  -6.37499988E-02   1.47876789E-23
  -6.25000000E-02   8.58102824E-23
  -6.12500012E-02   1.67954772E-22
  -5.99999987E-02   2.49784917E-22
  -5.87499999E-02   3.15733487E-22
  -5.75000010E-02   3.47620330E-22
  -5.62499985E-02   3.27206099E-22
  -5.49999997E-02   2.39637869E-22
  -5.37500009E-02   7.74204627E-23
  -5.24999984E-02  -1.55674329E-22
  -5.12499996E-02  -4.41528099E-22
  -5.00000007E-02  -7.46279178E-22
  -4.87499982E-02  -1.02141215E-21
  -4.74999994E-02  -1.20791523E-21
  -4.62500006E-02  -1.24369008E-21
  -4.50000018E-02  -1.07384179E-21
  -4.37499993E-02  -6.62831225E-22
  -4.25000004E-02  -6.81758207E-24
  -4.12500016E-02   8.56003293E-22
  -3.99999991E-02   1.83953397E-21
  -3.87500003E-02   2.81074458E-21
  -3.75000015E-02   3.59926601E-21
  -3.62499990E-02   4.01634558E-21
  -3.50000001E-02   3.88241179E-21
  -3.37500013E-02   3.06077183E-21
  -3.24999988E-02   1.49317622E-21
  -3.12500000E-02  -7.68470530E-22
  -2.99999993E-02  -3.54081326E-21
  -2.87500005E-02  -6.50461876E-21
  -2.74999999E-02  -9.22238932E-21
  -2.62499992E-02  -1.11806901E-20
  -2.50000004E-02  -1.18562649E-20
  -2.37499997E-02  -1.08006911E-20
  -2.25000009E-02  -7.73386246E-21
  -2.12500002E-02  -2.63271556E-21
  -1.99999996E-02   4.20083876E-21
  -1.87500007E-02   1.21091341E-20
  -1.75000001E-02   2.00990704E-20
  -1.62499994E-02   2.69221941E-20
  -1.49999997E-02   3.12152437E-20
  -1.37499999E-02   3.16920358E-20
  -1.25000002E-02   2.73670056E-20
  -1.12500004E-02   1.77813039E-20
  -9.99999978E-03   3.19541486E-21
  -8.75000004E-03  -1.52899328E-20
  -7.49999983E-03  -3.57194392E-20
  -6.25000009E-03  -5.54005572E-20
  -4.99999989E-03  -7.11616696E-20
  -3.74999992E-03  -7.97397781E-20
  -2.49999994E-03  -7.82635838E-20
  -1.24999997E-03  -6.47759645E-20
   0.00000000      -3.87225346E-20
   1.24999997E-03  -1.32412926E-21
   2.49999994E-03   4.42469282E-20
   3.74999992E-03   9.29516942E-20
   4.99999989E-03   1.38267634E-19
   6.25000009E-03   1.72868121E-19
   7.49999983E-03   1.89551152E-19
   8.75000004E-03   1.82324152E-19
   9.99999978E-03   1.47511274E-19
   1.12500004E-02   8.47231535E-20
   1.25000002E-02  -2.47812931E-21
   1.37499999E-02  -1.06369811E-19
   1.49999997E-02  -2.15423668E-19
   1.62499994E-02  -3.15270249E-19
   1.75000001E-02  -3.90234991E-19
   1.87500007E-02  -4.25320606E-19
   1.99999996E-02  -4.08426218E-19
   2.12500002E-02  -3.32526529E-19
   2.25000009E-02  -1.97498858E-19
   2.37499997E-02  -1.12865757E-20
   2.50000004E-02   2.09863929E-19
   2.62499992E-02   4.42266383E-19
   2.74999999E-02   6.56803533E-19
   2.87500005E-02   8.21976768E-19
   2.99999993E-02   9.07734252E-19
   3.12500000E-02   8.89675038E-19
   3.24999988E-02   7.53120341E-19
   3.37500013E-02   4.96494276E-19
   3.50000001E-02   1.33476268E-19
   3.62499990E-02  -3.06521082E-19
   3.75000015E-02  -7.79831760E-19
   3.87500003E-02  -1.23203775E-18
   3.99999991E-02  -1.60330505E-18
   4.12500016E-02  -1.83511012E-18
   4.25000004E-02  -1.87768738E-18
   4.37499993E-02  -1.69735704E-18
   4.50000018E-02  -1.28282044E-18
   4.62500006E-02  -6.49525223E-19
   4.74999994E-02   1.58649584E-19
   4.87499982E-02   1.07090328E-18
   5.00000007E-02   1.99440153E-18
   5.12499996E-02   2.82234749E-18
   5.24999984E-02   3.44464890E-18
   5.37500009E-02   3.76023237E-18
   5.49999997E-02   3.68977850E-18
   5.62499985E-02   3.18746935E-18
   5.75000010E-02   2.25033514E-18
   5.87499999E-02   9.23891571E-19
   5.99999987E-02  -6.96944644E-19
   6.12500012E-02  -2.47226459E-18
   6.25000000E-02  -4.22698930E-18
   6.37499988E-02  -5.76563002E-18
   6.49999976E-02  -6.89093935E-18
   6.62499964E-02  -7.42490718E-18
   6.75000027E-02  -7.23014668E-18
   6.87500015E-02  -6.22949802E-18
   7.00000003E-02  -4.42161538E-18
   7.12499991E-02  -1.89049027E-18
   7.24999979E-02   1.19274543E-18
   7.37499967E-02   4.57681018E-18
   7.50000030E-02   7.94636432E-18
   7.62500018E-02   1.09466435E-17
   7.75000006E-02   1.32151673E-17
   7.87499994E-02   1.44181700E-17
   7.99999982E-02   1.42886567E-17
   8.12499970E-02   1.26624403E-17
   8.25000033E-02   9.50825503E-18
   8.37500021E-02   4.94813280E-18
   8.50000009E-02  -7.35280278E-19
   8.62499997E-02  -7.10691083E-18
   8.74999985E-02  -1.36041474E-17
   8.87499973E-02  -1.95780830E-17
   9.00000036E-02  -2.43490308E-17
   9.12500024E-02  -2.72724724E-17
   9.25000012E-02  -2.78100140E-17
   9.37500000E-02  -2.55986195E-17
   9.49999988E-02  -2.05106646E-17
   9.62499976E-02  -1.26973374E-17
   9.74999964E-02  -2.60859575E-18
   9.87500027E-02   9.01548203E-18
  0.100000001       2.11847837E-17
  0.101250000       3.27305211E-17
  0.102499999       4.24042958E-17
  0.103749998       4.89978947E-17
  0.104999997       5.14736363E-17
  0.106250003       4.90927028E-17
  0.107500002       4.15274810E-17
  0.108750001       2.89439529E-17
  0.109999999       1.20417157E-17
  0.111249998      -7.95766361E-18
  0.112499997      -2.93787554E-17
  0.113750003      -5.02160075E-17
  0.115000002      -6.83060934E-17
  0.116250001      -8.15358680E-17
  0.117500000      -8.80673258E-17
  0.118749999      -8.65574432E-17
  0.119999997      -7.63485455E-17
  0.121250004      -5.76058439E-17
  0.122500002      -3.13819090E-17
  0.123750001       4.06137073E-19
  0.125000000       3.50928529E-17
  0.126249999       6.94706777E-17
  0.127499998       1.00072555E-16
  0.128749996       1.23507714E-16
  0.129999995       1.36819604E-16
  0.131249994       1.37829611E-16
  0.132499993       1.25428533E-16
  0.133750007       9.97802297E-17
  0.135000005       6.24082692E-17
  0.136250004       1.61467508E-17
  0.137500003      -3.50504682E-17
  0.138750002      -8.64329625E-17
  0.140000001      -1.32885163E-16
  0.141249999      -1.69428281E-16
  0.142499998      -1.91744635E-16
  0.143749997      -1.96670105E-16
  0.144999996      -1.82600200E-16
  0.146249995      -1.49760573E-16
  0.147499993      -1.00303888E-16
  0.148750007      -3.82111419E-17
  0.150000006       3.10049826E-17
  0.151250005       1.00776089E-16
  0.152500004       1.64094330E-16
  0.153750002       2.14212435E-16
  0.155000001       2.45358472E-16
  0.156250000       2.53390886E-16
  0.157499999       2.36320525E-16
  0.158749998       1.94637425E-16
  0.159999996       1.31396118E-16
  0.161249995       5.20372938E-17
  0.162499994      -3.60503145E-17
  0.163749993      -1.24195624E-16
  0.165000007      -2.03280800E-16
  0.166250005      -2.64667912E-16
  0.167500004      -3.01123945E-16
  0.168750003      -3.07647263E-16
  0.170000002      -2.82103608E-16
  0.171250001      -2.25595605E-16
  0.172499999      -1.42513585E-16
  0.173749998      -4.02469723E-17
  0.174999997       7.14307583E-17
  0.176249996       1.81255125E-16
  0.177499995       2.77562559E-16
  0.178749993       3.49477509E-16
  0.180000007       3.88076695E-16
  0.181250006       3.87409365E-16
  0.182500005       3.45262144E-16
  0.183750004       2.63578442E-16
  0.185000002       1.48474036E-16
  0.186250001       9.82926480E-18
  0.187500000      -1.39519469E-16
  0.188749999      -2.84924360E-16
  0.189999998      -4.11306150E-16
  0.191249996      -5.04640842E-16
  0.192499995      -5.53409135E-16
  0.193749994      -5.49862237E-16
  0.194999993      -4.90972589E-16
  0.196250007      -3.78962170E-16
  0.197500005      -2.21341488E-16
  0.198750004      -3.04370040E-17
  0.200000003       1.77565886E-16
  0.201250002       3.83988278E-16
  0.202500001       5.69314720E-16
  0.203749999       7.14992634E-16
  0.204999998       8.05207996E-16
  0.206249997       8.28468791E-16
  0.207499996       7.78841554E-16
  0.208749995       6.56716820E-16
  0.209999993       4.69018713E-16
  0.211250007       2.28826692E-16
  0.212500006      -4.55714479E-17
  0.213750005      -3.32120957E-16
  0.215000004      -6.06816892E-16
  0.216250002      -8.45740481E-16
  0.217500001      -1.02713841E-15
  0.218750000      -1.13336153E-15
  0.219999999      -1.15249060E-15
  0.221249998      -1.07950389E-15
  0.222499996      -9.16879072E-16
  0.223749995      -6.74571163E-16
  0.224999994      -3.69361396E-16
  0.226249993      -2.36260418E-17
  0.227500007       3.36377271E-16
  0.228750005       6.82568001E-16
  0.230000004       9.87279369E-16
  0.231250003       1.22549246E-15
  0.232500002       1.37688774E-15
  0.233750001       1.42754941E-15
  0.234999999       1.37118477E-15
  0.236249998       1.20976072E-15
  0.237499997       9.53503824E-16
  0.238749996       6.20258034E-16
  0.239999995       2.34245426E-16
  0.241249993      -1.75684017E-16
  0.242500007      -5.78187443E-16
  0.243750006      -9.41795923E-16
  0.245000005      -1.23734118E-15
  0.246250004      -1.44026698E-15
  0.247500002      -1.53265297E-15
  0.248750001      -1.50479776E-15
  0.250000000      -1.35623601E-15
  0.251249999      -1.09609632E-15
  0.252499998      -7.42754139E-16
  0.253749996      -3.22774345E-16
  0.254999995       1.30809627E-16
  0.256249994       5.80788416E-16
  0.257499993       9.88505343E-16
  0.258749992       1.31684782E-15
  0.259999990       1.53329894E-15
  0.261249989       1.61283099E-15
  0.262499988       1.54041634E-15
  0.263749987       1.31294067E-15
  0.264999986       9.40331615E-16
  0.266250014       4.45754159E-16
  0.267500013      -1.35219996E-16
  0.268750012      -7.56493701E-16
  0.270000011      -1.36432666E-15
  0.271250010      -1.90108773E-15
  0.272500008      -2.30966636E-15
  0.273750007      -2.53826467E-15
  0.275000006      -2.54522792E-15
  0.276250005      -2.30353744E-15
  0.277500004      -1.80457532E-15
  0.278750002      -1.06078573E-15
  0.280000001      -1.06905643E-16
  0.281250000       1.00048313E-15
  0.282499999       2.18522261E-15
  0.283749998       3.35567878E-15
  0.284999996       4.41053783E-15
  0.286249995       5.24601174E-15
  0.287499994       5.76402448E-15
  0.288749993       5.88082058E-15
  0.289999992       5.53534845E-15
  0.291249990       4.69671172E-15
  0.292499989       3.36999745E-15
  0.293749988       1.59982787E-15
  0.294999987      -5.28879484E-16
  0.296249986      -2.89330552E-15
  0.297500014      -5.33840397E-15
  0.298750013      -7.68574318E-15
  0.300000012      -9.74511914E-15
  0.301250011      -1.13282932E-14
  0.302500010      -1.22639580E-14
  0.303750008      -1.24128443E-14
  0.305000007      -1.16817829E-14
  0.306250006      -1.00354727E-14
  0.307500005      -7.50480424E-15
  0.308750004      -4.19073616E-15
  0.310000002      -2.63003915E-16
  0.311250001       4.04671600E-15
  0.312500000       8.45713609E-15
  0.313749999       1.26546866E-14
  0.314999998       1.63148863E-14
  0.316249996       1.91264021E-14
  0.317499995       2.08160668E-14
  0.318749994       2.11729590E-14
  0.319999993       2.00695089E-14
  0.321249992       1.74776931E-14
  0.322499990       1.34786312E-14
  0.323749989       8.26430480E-15
  0.324999988       2.13064933E-15
  0.326249987      -4.53806457E-15
  0.327499986      -1.12929194E-14
  0.328750014      -1.76507826E-14
  0.330000013      -2.31294645E-14
  0.331250012      -2.72850929E-14
  0.332500011      -2.97487763E-14
  0.333750010      -3.02595371E-14
  0.335000008      -2.86905950E-14
  0.336250007      -2.50664205E-14
  0.337500006      -1.95685922E-14
  0.338750005      -1.25293444E-14
  0.340000004      -4.41261941E-15
  0.341250002       4.21650545E-15
  0.342500001       1.27320961E-14
  0.343750000       2.04944992E-14
  0.344999999       2.69007398E-14
  0.346249998       3.14341177E-14
  0.347499996       3.37087637E-14
  0.348749995       3.35051404E-14
  0.349999994       3.07930459E-14
  0.351249993       2.57395881E-14
  0.352499992       1.87007849E-14
  0.353749990       1.01968028E-14
  0.354999989       8.72303064E-16
  0.356249988      -8.55523182E-15
  0.357499987      -1.73551325E-14
  0.358749986      -2.48461293E-14
  0.360000014      -3.04564079E-14
  0.361250013      -3.37755574E-14
  0.362500012      -3.45933270E-14
  0.363750011      -3.29210231E-14
  0.365000010      -2.89927519E-14
  0.366250008      -2.32454149E-14
  0.367500007      -1.62782521E-14
  0.368750006      -8.79464145E-15
  0.370000005      -1.53066117E-15
  0.371250004       4.82362605E-15
  0.372500002       9.70319101E-15
  0.373750001       1.27399701E-14
  0.375000000       1.38205436E-14
  0.376249999       1.31233017E-14
  0.377499998       1.11303687E-14
  0.378749996       8.61159339E-15
  0.379999995       6.58036265E-15
  0.381249994       6.22356357E-15
  0.382499993       8.81056651E-15
  0.383749992       1.55883607E-14
  0.384999990       2.76717210E-14
  0.386249989       4.59383203E-14
  0.387499988       7.09389619E-14
  0.388749987       1.02832436E-13
  0.389999986       1.41352899E-13
  0.391250014       1.85815529E-13
  0.392500013       2.35162828E-13
  0.393750012       2.88051077E-13
  0.395000011       3.42972477E-13
  0.396250010       3.98405348E-13
  0.397500008       4.52981917E-13
  0.398750007       5.05660943E-13
  0.400000006       5.55891487E-13
  0.401250005       6.03753755E-13
  0.402500004       6.50064421E-13
  0.403750002       6.96435856E-13
  0.405000001       7.45282525E-13
  0.406250000       7.99771165E-13
  0.407499999       8.63716000E-13
  0.408749998       9.41425865E-13
  0.409999996       1.03751372E-12
  0.411249995       1.15668185E-12
  0.412499994       1.30350104E-12
  0.413749993       1.48220184E-12
  0.414999992       1.69649570E-12
  0.416249990       1.94944343E-12
  0.417499989       2.24338517E-12
  0.418749988       2.57994104E-12
  0.419999987       2.96008747E-12
  0.421249986       3.38430846E-12
  0.422500014       3.85281260E-12
  0.423750013       4.36580719E-12
  0.425000012       4.92380746E-12
  0.426250011       5.52796394E-12
  0.427500010       6.18038520E-12
  0.428750008       6.88443096E-12
  0.430000007       7.64495672E-12
  0.431250006       8.46849067E-12
  0.432500005       9.36333216E-12
  0.433750004       1.03395625E-11
  0.435000002       1.14089719E-11
  0.436250001       1.25849079E-11
  0.437500000       1.38820561E-11
  0.438749999       1.53161754E-11
  0.439999998       1.69038134E-11
  0.441249996       1.86620251E-11
  0.442499995       2.06081142E-11
  0.443749994       2.27594436E-11
  0.444999993       2.51333000E-11
  0.446249992       2.77468708E-11
  0.447499990       3.06173108E-11
  0.448749989       3.37619030E-11
  0.449999988       3.71983312E-11
  0.451249987       4.09450251E-11
  0.452499986       4.50215594E-11
  0.453750014       4.94490941E-11
  0.455000013       5.42508295E-11
  0.456250012       5.94524291E-11
  0.457500011       6.50824047E-11
  0.458750010       7.11724013E-11
  0.460000008       7.77574324E-11
  0.461250007       8.48759674E-11
  0.462500006       9.25699309E-11
  0.463750005       1.00884606E-10
  0.465000004       1.09868441E-10
  0.466250002       1.19572782E-10
  0.467500001       1.30051539E-10
  0.468750000       1.41360881E-10
  0.469999999       1.53558943E-10
  0.471249998       1.66705483E-10
  0.472499996       1.80861770E-10
  0.473749995       1.96090394E-10
  0.474999994       2.12455331E-10
  0.476249993       2.30022015E-10
  0.477499992       2.48857573E-10
  0.478749990       2.69031047E-10
  0.479999989       2.90613977E-10
  0.481249988       3.13680582E-10
  0.482499987       3.38308381E-10
  0.483749986       3.64578590E-10
  0.485000014       3.92576416E-10
  0.486250013       4.22391483E-10
  0.487500012       4.54117882E-10
  0.488750011       4.87854313E-10
  0.490000010       5.23704025E-10
  0.491250008       5.61774516E-10
  0.492500007       6.02177253E-10
  0.493750006       6.45027143E-10
  0.495000005       6.90442092E-10
  0.496250004       7.38542227E-10
  0.497500002       7.89449561E-10
  0.498750001       8.43287107E-10
  0.500000000       9.00178543E-10
  0.501250029       9.60247548E-10
  0.502499998       1.02361764E-09
  0.503750026       1.09041187E-09
  0.504999995       1.16075283E-09
  0.506250024       1.23476240E-09
  0.507499993       1.31256239E-09
  0.508750021       1.39427403E-09
  0.509999990       1.48001889E-09
  0.511250019       1.56991886E-09
  0.512499988       1.66409631E-09
  0.513750017       1.76267445E-09
  0.514999986       1.86577731E-09
  0.516250014       1.97352934E-09
  0.517499983       2.08605599E-09
  0.518750012       2.20348206E-09
  0.519999981       2.32593211E-09
  0.521250010       2.45352960E-09
  0.522499979       2.58639532E-09
  0.523750007       2.72464717E-09
  0.524999976       2.86839907E-09
  0.526250005       3.01775982E-09
  0.527499974       3.17283244E-09
  0.528750002       3.33371286E-09
  0.529999971       3.50048990E-09
  0.531250000       3.67324438E-09
  0.532500029       3.85204935E-09
  0.533749998       4.03696987E-09
  0.535000026       4.22806279E-09
  0.536249995       4.42537740E-09
  0.537500024       4.62895544E-09
  0.538749993       4.83883156E-09
  0.540000021       5.05503461E-09
  0.541249990       5.27758726E-09
  0.542500019       5.50650636E-09
  0.543749988       5.74180348E-09
  0.545000017       5.98348571E-09
  0.546249986       6.23155394E-09
  0.547500014       6.48600285E-09
  0.548749983       6.74682177E-09
  0.550000012       7.01399294E-09
  0.551249981       7.28749061E-09
  0.552500010       7.56728191E-09
  0.553749979       7.85332332E-09
  0.555000007       8.14556156E-09
  0.556249976       8.44393355E-09
  0.557500005       8.74836736E-09
  0.558749974       9.05877684E-09
  0.560000002       9.37506872E-09
  0.561249971       9.69713554E-09
  0.562500000       1.00248618E-08
  0.563750029       1.03581224E-08
  0.564999998       1.06967830E-08
  0.566250026       1.10407044E-08
  0.567499995       1.13897380E-08
  0.568750024       1.17437340E-08
  0.569999993       1.21025341E-08
  0.571250021       1.24659794E-08
  0.572499990       1.28339073E-08
  0.573750019       1.32061535E-08
  0.574999988       1.35825529E-08
  0.576250017       1.39629384E-08
  0.577499986       1.43471404E-08
  0.578750014       1.47349883E-08
  0.579999983       1.51263091E-08
  0.581250012       1.55209303E-08
  0.582499981       1.59186744E-08
  0.583750010       1.63193636E-08
  0.584999979       1.67228151E-08
  0.586250007       1.71288441E-08
  0.587499976       1.75372641E-08
  0.588750005       1.79478903E-08
  0.589999974       1.83605309E-08
  0.591250002       1.87749976E-08
  0.592499971       1.91911003E-08
  0.593750000       1.96086489E-08
  0.595000029       2.00274606E-08
  0.596249998       2.04473469E-08
  0.597500026       2.08681268E-08
  0.598749995       2.12896243E-08
  0.600000024       2.17116654E-08
  0.601249993       2.21340830E-08
  0.602500021       2.25567138E-08
  0.603749990       2.29794033E-08
  0.605000019       2.34019968E-08
  0.606249988       2.38243505E-08
  0.607500017       2.42463223E-08
  0.608749986       2.46677754E-08
  0.610000014       2.50885819E-08
  0.611249983       2.55086139E-08
  0.612500012       2.59277506E-08
  0.613749981       2.63458748E-08
  0.615000010       2.67628781E-08
  0.616249979       2.71786558E-08
  0.617500007       2.75931065E-08
  0.618749976       2.80061361E-08
  0.620000005       2.84176576E-08
  0.621249974       2.88275910E-08
  0.622500002       2.92358600E-08
  0.623749971       2.96423970E-08
  0.625000000       3.00471434E-08
  0.626250029       3.04500425E-08
  0.627499998       3.08510550E-08
  0.628750026       3.12501420E-08
  0.629999995       3.16472715E-08
  0.631250024       3.20424185E-08
  0.632499993       3.24355725E-08
  0.633750021       3.28267156E-08
  0.634999990       3.32158407E-08
  0.636250019       3.36029480E-08
  0.637499988       3.39880337E-08
  0.638750017       3.43711051E-08
  0.639999986       3.47521656E-08
  0.641250014       3.51312259E-08
  0.642499983       3.55082967E-08
  0.643750012       3.58833852E-08
  0.644999981       3.62565089E-08
  0.646250010       3.66276858E-08
  0.647499979       3.69969335E-08
  0.648750007       3.73642770E-08
  0.649999976       3.77297447E-08
  0.651250005       3.80933649E-08
  0.652499974       3.84551804E-08
  0.653750002       3.88152337E-08
  0.654999971       3.91735782E-08
  0.656250000       3.95302671E-08
  0.657500029       3.98853608E-08
  0.658749998       4.02389269E-08
  0.660000026       4.05910292E-08
  0.661249995       4.09417389E-08
  0.662500024       4.12911305E-08
  0.663749993       4.16392787E-08
  0.665000021       4.19862474E-08
  0.666249990       4.23321076E-08
  0.667500019       4.26769162E-08
  0.668749988       4.30207301E-08
  0.670000017       4.33635989E-08
  0.671249986       4.37055618E-08
  0.672500014       4.40466614E-08
  0.673749983       4.43869261E-08
  0.675000012       4.47263808E-08
  0.676249981       4.50650539E-08
  0.677500010       4.54029632E-08
  0.678749979       4.57401264E-08
  0.680000007       4.60765648E-08
  0.681249976       4.64122998E-08
  0.682500005       4.67473527E-08
  0.683749974       4.70817447E-08
  0.685000002       4.74155044E-08
  0.686249971       4.77486566E-08
  0.687500000       4.80812261E-08
  0.688750029       4.84132450E-08
  0.689999998       4.87447416E-08
  0.691250026       4.90757301E-08
  0.692499995       4.94062320E-08
  0.693750024       4.97362578E-08
  0.694999993       5.00658075E-08
  0.696250021       5.03948847E-08
  0.697499990       5.07234716E-08
  0.698750019       5.10515541E-08
  0.699999988       5.13791036E-08
  0.701250017       5.17060847E-08
  0.702499986       5.20324654E-08
  0.703750014       5.23582102E-08
  0.704999983       5.26832729E-08
  0.706250012       5.30076214E-08
  0.707499981       5.33312168E-08
  0.708750010       5.36540199E-08
  0.709999979       5.39760059E-08
  0.711250007       5.42971428E-08
  0.712499976       5.46174093E-08
  0.713750005       5.49367876E-08
  0.714999974       5.52552528E-08
  0.716250002       5.55727873E-08
  0.717499971       5.58893802E-08
  0.718750000       5.62050140E-08
  0.720000029       5.65196636E-08
  0.721249998       5.68333114E-08
  0.722500026       5.71459360E-08
  0.723749995       5.74575090E-08
  0.725000024       5.77680090E-08
  0.726249993       5.80774078E-08
  0.727500021       5.83856874E-08
  0.728749990       5.86928230E-08
  0.730000019       5.89988005E-08
  0.731249988       5.93036056E-08
  0.732500017       5.96072454E-08
  0.733749986       5.99097163E-08
  0.735000014       6.02110362E-08
  0.736249983       6.05112191E-08
  0.737500012       6.08103079E-08
  0.738749981       6.11083308E-08
  0.740000010       6.14053448E-08
  0.741249979       6.17013924E-08
  0.742500007       6.19965377E-08
  0.743749976       6.22908445E-08
  0.745000005       6.25843626E-08
  0.746249974       6.28771701E-08
  0.747500002       6.31693382E-08
  0.748749971       6.34609236E-08
  0.750000000       6.37520117E-08
  0.751250029       6.40426663E-08
  0.752499998       6.43329656E-08
  0.753750026       6.46229950E-08
  0.754999995       6.49128467E-08
  0.756250024       6.52026131E-08
  0.757499993       6.54923937E-08
  0.758750021       6.57823023E-08
  0.759999990       6.60724524E-08
  0.761250019       6.63629649E-08
  0.762499988       6.66539748E-08
  0.763750017       6.69456170E-08
  0.764999986       6.72380338E-08
  0.766250014       6.75313743E-08
  0.767499983       6.78258019E-08
  0.768750012       6.81214658E-08
  0.769999981       6.84185366E-08
  0.771250010       6.87171706E-08
  0.772499979       6.90175384E-08
  0.773750007       6.93198032E-08
  0.774999976       6.96241287E-08
  0.776250005       6.99306852E-08
  0.777499974       7.02396505E-08
  0.778750002       7.05511880E-08
  0.779999971       7.08654682E-08
  0.781250000       7.11826686E-08
  0.782500029       7.15029529E-08
  0.783749998       7.18264914E-08
  0.785000026       7.21534477E-08
  0.786249995       7.24839850E-08
  0.787500024       7.28182670E-08
  0.788749993       7.31564569E-08
  0.790000021       7.34987111E-08
  0.791249990       7.38451860E-08
  0.792500019       7.41960307E-08
  0.793749988       7.45513944E-08
  0.795000017       7.49114193E-08
  0.796249986       7.52762475E-08
  0.797500014       7.56460281E-08
  0.798749983       7.60208820E-08
  0.800000012       7.64009513E-08
  0.801249981       7.67863497E-08
  0.802500010       7.71772051E-08
  0.803749979       7.75736169E-08
  0.805000007       7.79756988E-08
  0.806249976       7.83835361E-08
  0.807500005       7.87972283E-08
  0.808749974       7.92168464E-08
  0.810000002       7.96424473E-08
  0.811249971       8.00740949E-08
  0.812500000       8.05118248E-08
  0.813750029       8.09556653E-08
  0.814999998       8.14056520E-08
  0.816250026       8.18617849E-08
  0.817499995       8.23240711E-08
  0.818750024       8.27925106E-08
  0.819999993       8.32670821E-08
  0.821250021       8.37477643E-08
  0.822499990       8.42345500E-08
  0.823750019       8.47273967E-08
  0.824999988       8.52262687E-08
  0.826250017       8.57311235E-08
  0.827499986       8.62419185E-08
  0.828750014       8.67585968E-08
  0.829999983       8.72810872E-08
  0.831250012       8.78093047E-08
  0.832499981       8.83431639E-08
  0.833750010       8.88825724E-08
  0.834999979       8.94274095E-08
  0.836250007       8.99775472E-08
  0.837499976       9.05328434E-08
  0.838750005       9.10931632E-08
  0.839999974       9.16583431E-08
  0.841250002       9.22282339E-08
  0.842499971       9.28026580E-08
  0.843750000       9.33814519E-08
  0.845000029       9.39644522E-08
  0.846249998       9.45514813E-08
  0.847500026       9.51423758E-08
  0.848749995       9.57369792E-08
  0.850000024       9.63351212E-08
  0.851249993       9.69366525E-08
  0.852500021       9.75414167E-08
  0.853749990       9.81492505E-08
  0.855000019       9.87599975E-08
  0.856249988       9.93735014E-08
  0.857500017       9.99895917E-08
  0.858749986       1.00608098E-07
  0.860000014       1.01228849E-07
  0.861249983       1.01851661E-07
  0.862500012       1.02476363E-07
  0.863749981       1.03102771E-07
  0.865000010       1.03730699E-07
  0.866249979       1.04359977E-07
  0.867500007       1.04990420E-07
  0.868749976       1.05621872E-07
  0.870000005       1.06254163E-07