 -0.200000003       0.00000000    
 -0.198750004       0.00000000    
 -0.197500005       0.00000000    
 -0.196250007       0.00000000    
 -0.194999993       0.00000000    
 -0.193749994       0.00000000    
 -0.192499995       0.00000000    
 -0.191249996       0.00000000    
 -0.189999998      -6.39311659E-36
 -0.188749999      -7.91839742E-35
 -0.187500000      -5.96466956E-34
 -0.186250001      -3.87174374E-33
 -0.185000002      -2.29313954E-32
 -0.183750004      -1.18771361E-31
 -0.182500005      -5.23758764E-31
 -0.181250006      -1.96721932E-30
 -0.180000007      -6.36703186E-30
 -0.178749993      -1.79980034E-29
 -0.177499995      -4.49661369E-29
 -0.176249996      -1.00262065E-28
 -0.174999997      -2.01108951E-28
 -0.173749998      -3.65578048E-28
 -0.172499999      -6.07813187E-28
 -0.171250001      -9.38640381E-28
 -0.170000002      -1.38571748E-27
 -0.168750003      -2.05123595E-27
 -0.167500004      -3.21457160E-27
 -0.166250005      -5.44830482E-27
 -0.165000007      -9.64092103E-27
 -0.163749993      -1.67220732E-26
 -0.162499994      -2.68194527E-26
 -0.161249995      -3.76401653E-26
 -0.159999996      -4.21903088E-26
 -0.158749998      -2.66178833E-26
 -0.157499999       3.00639143E-26
 -0.156250000       1.51652938E-25
 -0.155000001       3.52815377E-25
 -0.153750002       6.17797453E-25
 -0.152500004       8.71863371E-25
 -0.151250005       9.54157340E-25
 -0.150000006       6.09163469E-25
 -0.148750007      -4.78707126E-25
 -0.147499993      -2.58170923E-24
 -0.146249995      -5.74214338E-24
 -0.144999996      -9.51722107E-24
 -0.143749997      -1.27177150E-23
 -0.142499998      -1.32612078E-23
 -0.141249999      -8.31091469E-24
 -0.140000001       5.11716123E-24
 -0.138750002       2.89580930E-23
 -0.137500003       6.23567661E-23
 -0.136250004       9.96966072E-23
 -0.135000005       1.29052002E-22
 -0.133750007       1.32028810E-22
 -0.132499993       8.60934141E-23
 -0.131249994      -2.97251593E-23
 -0.129999995      -2.25590212E-22
 -0.128749996      -4.89156315E-22
 -0.127499998      -7.74165727E-22
 -0.126249999      -9.93785107E-22
 -0.125000000      -1.02422994E-21
 -0.123750001      -7.23975038E-22
 -0.122500002       2.84665633E-23
 -0.121250004       1.27994911E-21
 -0.119999997       2.93993036E-21
 -0.118749999       4.72602454E-21
 -0.117500000       6.14095050E-21
 -0.116250001       6.50647305E-21
 -0.115000002       5.07525672E-21
 -0.113750003       1.22757965E-21
 -0.112499997      -5.26367012E-21
 -0.111249998      -1.39465689E-20
 -0.109999999      -2.34599682E-20
 -0.108750001      -3.14589033E-20
 -0.107500002      -3.47968453E-20
 -0.106250003      -3.00376261E-20
 -0.104999997      -1.43064748E-20
 -0.103749998       1.36063246E-20
 -0.102499999       5.20894146E-20
 -0.101250000       9.58089376E-20
 -0.100000001       1.35433144E-19
  -9.87500027E-02   1.58341718E-19
  -9.74999964E-02   1.50557289E-19
  -9.62499976E-02   9.98992811E-20
  -9.49999988E-02   2.41353414E-23
  -9.37500000E-02  -1.45365011E-19
  -9.25000012E-02  -3.19192972E-19
  -9.12500024E-02  -4.89811898E-19
  -9.00000036E-02  -6.13091484E-19
  -8.87499973E-02  -6.38554016E-19
  -8.74999985E-02  -5.19546663E-19
  -8.62499997E-02  -2.26390855E-19
  -8.50000009E-02   2.39695564E-19
  -8.37500021E-02   8.35116118E-19
  -8.25000033E-02   1.46860148E-18
  -8.12499970E-02   2.00562513E-18
  -7.99999982E-02   2.28487779E-18
  -7.87499994E-02   2.14697727E-18
  -7.75000006E-02   1.47266987E-18
  -7.62500018E-02   2.24565293E-19
  -7.50000030E-02  -1.51634790E-18
  -7.37499967E-02  -3.52972650E-18
  -7.24999979E-02  -5.46033668E-18
  -7.12499991E-02  -6.85495575E-18
  -7.00000003E-02  -7.23322875E-18
  -6.87500015E-02  -6.18661656E-18
  -6.75000027E-02  -3.49127418E-18
  -6.62499964E-02   7.86623947E-19
  -6.49999976E-02   6.21904990E-18
  -6.37499988E-02   1.20034826E-17
  -6.25000000E-02   1.70290118E-17
  -6.12500012E-02   2.00283290E-17
  -5.99999987E-02   1.98056337E-17
  -5.87499999E-02   1.55108376E-17
  -5.75000010E-02   6.91248534E-18
  -5.62499985E-02  -5.39020790E-18
  -5.49999997E-02  -1.98776729E-17
  -5.37500009E-02  -3.41927282E-17
  -5.24999984E-02  -4.54209275E-17
  -5.12499996E-02  -5.05567893E-17
  -5.00000007E-02  -4.71015467E-17
  -4.87499982E-02  -3.36968169E-17
  -4.74999994E-02  -1.06686463E-17
  -4.62500006E-02   1.96531016E-17
  -4.50000018E-02   5.29580483E-17
  -4.37499993E-02   8.33927495E-17
  -4.25000004E-02   1.04411713E-16
  -4.12500016E-02   1.09954280E-16
  -3.99999991E-02   9.57717654E-17
  -3.87500003E-02   6.06605226E-17
  -3.75000015E-02   7.32566122E-18
  -3.62499990E-02  -5.73802750E-17
  -3.50000001E-02  -1.23020114E-16
  -3.37500013E-02  -1.76981023E-16
  -3.24999988E-02  -2.06607072E-16
  -3.12500000E-02  -2.01756194E-16
  -2.99999993E-02  -1.57335946E-16
  -2.87500005E-02  -7.52881397E-17
  -2.74999999E-02   3.44954234E-17
  -2.62499992E-02   1.54721976E-16
  -2.50000004E-02   2.62879481E-16
  -2.37499997E-02   3.34910845E-16
  -2.25000009E-02   3.49904758E-16
  -2.12500002E-02   2.95022528E-16
  -1.99999996E-02   1.69685581E-16
  -1.87500007E-02  -1.19894908E-17
  -1.75000001E-02  -2.21348106E-16
  -1.62499994E-02  -4.18415403E-16
  -1.49999997E-02  -5.58097780E-16
  -1.37499999E-02  -5.98666846E-16
  -1.25000002E-02  -5.11218424E-16
  -1.12500004E-02  -2.88350079E-16
  -9.99999978E-03   4.98761322E-17
  -8.75000004E-03   4.54440852E-16
  -7.49999983E-03   8.51528257E-16
  -6.25000009E-03   1.15261988E-15
  -4.99999989E-03   1.26965517E-15
  -3.74999992E-03   1.13322420E-15
  -2.49999994E-03   7.10767263E-16
  -1.24999997E-03   2.11606036E-17
   0.00000000      -8.57886139E-16
   1.24999997E-03  -1.79250256E-15
   2.49999994E-03  -2.60686206E-15
   3.74999992E-03  -3.10844723E-15
   4.99999989E-03  -3.12170308E-15
   6.25000009E-03  -2.52532476E-15
   7.49999983E-03  -1.28685216E-15
   8.75000004E-03   5.12393788E-16
   9.99999978E-03   2.66851208E-15
   1.12500004E-02   4.86700558E-15
   1.25000002E-02   6.71727493E-15
   1.37499999E-02   7.80753890E-15
   1.49999997E-02   7.77412599E-15
   1.62499994E-02   6.37538110E-15
   1.75000001E-02   3.55805549E-15
   1.87500007E-02  -4.96839722E-16
   1.99999996E-02  -5.36019093E-15
   2.12500002E-02  -1.03809698E-14
   2.25000009E-02  -1.47547803E-14
   2.37499997E-02  -1.76303403E-14
   2.50000004E-02  -1.82423605E-14
   2.62499992E-02  -1.60529938E-14
   2.74999999E-02  -1.08798528E-14
   2.87500005E-02  -2.98737043E-15
   2.99999993E-02   6.87916156E-15
   3.12500000E-02   1.75314119E-14
   3.24999988E-02   2.74526309E-14
   3.37500013E-02   3.49825319E-14
   3.50000001E-02   3.85535415E-14
   3.62499990E-02   3.69489866E-14
   3.75000015E-02   2.95457255E-14
   3.87500003E-02   1.65014182E-14
   3.99999991E-02  -1.15045413E-15
   4.12500016E-02  -2.15254704E-14
   4.25000004E-02  -4.20458380E-14
   4.37499993E-02  -5.97248284E-14
   4.50000018E-02  -7.15523154E-14
   4.62500006E-02  -7.49368829E-14
   4.74999994E-02  -6.81458606E-14
   4.87499982E-02  -5.06775171E-14
   5.00000007E-02  -2.35016711E-14
   5.12499996E-02   1.08836873E-14
   5.24999984E-02   4.86108651E-14
   5.37500009E-02   8.48198600E-14
   5.49999997E-02   1.14226296E-13
   5.62499985E-02   1.31821108E-13
   5.75000010E-02   1.33616385E-13
   5.87499999E-02   1.17335707E-13
   5.99999987E-02   8.29440073E-14
   6.12500012E-02   3.29218600E-14
   6.25000000E-02  -2.77832753E-14
   6.37499988E-02  -9.21589804E-14
   6.49999976E-02  -1.51865540E-13
   6.62499964E-02  -1.98242220E-13
   6.75000027E-02  -2.23470236E-13
   6.87500015E-02  -2.21745555E-13
   7.00000003E-02  -1.90298488E-13
   7.12499991E-02  -1.30101320E-13
   7.24999979E-02  -4.61319351E-14
   7.37499967E-02   5.28883679E-14
   7.50000030E-02   1.55300726E-13
   7.62500018E-02   2.47800912E-13
   7.75000006E-02   3.17086635E-13
   7.87499994E-02   3.51667046E-13
   7.99999982E-02   3.43598956E-13
   8.12499970E-02   2.89901729E-13
   8.25000033E-02   1.93426587E-13
   8.37500021E-02   6.30071082E-14
   8.50000009E-02  -8.71951098E-14
   8.62499997E-02  -2.39131902E-13
   8.74999985E-02  -3.72968719E-13
   8.87499973E-02  -4.69611166E-13
   9.00000036E-02  -5.13344684E-13
   9.12500024E-02  -4.94233940E-13
   9.25000012E-02  -4.09927409E-13
   9.37500000E-02  -2.66570864E-13
   9.49999988E-02  -7.86287539E-14
   9.62499976E-02   1.32446259E-13
   9.74999964E-02   3.40603034E-13
   9.87500027E-02   5.18388934E-13
  0.100000001       6.40571092E-13
  0.101250000       6.87707649E-13
  0.102499999       6.49170442E-13
  0.103749998       5.25151320E-13
  0.104999997       3.27309441E-13
  0.106250003       7.78671222E-14
  0.107500002      -1.92817062E-13
  0.108750001      -4.49958836E-13
  0.109999999      -6.58897524E-13
  0.111249998      -7.89896414E-13
  0.112499997      -8.22522551E-13
  0.113750003      -7.48957211E-13
  0.115000002      -5.75696012E-13
  0.116250001      -3.23300306E-13
  0.117500000      -2.41153905E-14
  0.118749999       2.81827215E-13
  0.119999997       5.52234799E-13
  0.121250004       7.48587065E-13
  0.122500002       8.41923536E-13
  0.123750001       8.17513212E-13
  0.125000000       6.77643488E-13
  0.126249999       4.41999356E-13
  0.127499998       1.45423075E-13
  0.128749996      -1.66760648E-13
  0.129999995      -4.45304926E-13
  0.131249994      -6.44598958E-13
  0.132499993      -7.30130312E-13
  0.133750007      -6.84688200E-13
  0.135000005      -5.12245411E-13
  0.136250004      -2.38748528E-13
  0.137500003       9.05656369E-14
  0.138750002       4.17179556E-13
  0.140000001       6.77972327E-13
  0.141249999       8.15433658E-13
  0.142499998       7.87944959E-13
  0.143749997       5.78513962E-13
  0.144999996       2.00431008E-13
  0.146249995      -3.01342962E-13
  0.147499993      -8.53734564E-13
  0.148750007      -1.36402901E-12
  0.150000006      -1.73248341E-12
  0.151250005      -1.86759722E-12
  0.152500004      -1.70199868E-12
  0.153750002      -1.20660339E-12
  0.155000001      -4.00671466E-13
  0.156250000       6.44206205E-13
  0.157499999       1.80753557E-12
  0.158749998       2.93113927E-12
  0.159999996       3.83745856E-12
  0.161249995       4.35310945E-12
  0.162499994       4.33494083E-12
  0.163749993       3.69511279E-12
  0.165000007       2.42152088E-12
  0.166250005       5.90098554E-13
  0.167500004      -1.63370717E-12
  0.168750003      -4.00577878E-12
  0.170000002      -6.22646379E-12
  0.171250001      -7.97422892E-12
  0.172499999      -8.94649198E-12
  0.173749998      -8.90289144E-12
  0.174999997      -7.70541096E-12
  0.176249996      -5.34964304E-12
  0.177499995      -1.98198706E-12
  0.178749993       2.10105457E-12
  0.180000007       6.47337565E-12
  0.181250006       1.06190178E-11
  0.182500005       1.39880772E-11
  0.183750004       1.60632046E-11
  0.185000002       1.64292087E-11
  0.186250001       1.48371176E-11
  0.187500000       1.12539379E-11
  0.188749999       5.89025313E-12
  0.189999998      -8.00063791E-13
  0.191249996      -8.15070927E-12
  0.192499995      -1.53435441E-11
  0.193749994      -2.14941554E-11
  0.194999993      -2.57540100E-11
  0.196250007      -2.74181008E-11
  0.197500005      -2.60250311E-11
  0.198750004      -2.14366355E-11
  0.200000003      -1.38852619E-11
  0.201250002      -3.98006888E-12
  0.202500001       7.33206204E-12
  0.203749999       1.88501263E-11
  0.204999998       2.92407071E-11
  0.206249997       3.71862194E-11
  0.207499996       4.15436990E-11
  0.208749995       4.14959560E-11
  0.209999993       3.66758499E-11
  0.211250007       2.72468107E-11
  0.212500006       1.39262248E-11
  0.213750005      -2.05550963E-12
  0.215000004      -1.90602222E-11
  0.216250002      -3.52038468E-11
  0.217500001      -4.85596875E-11
  0.218750000      -5.73817417E-11
  0.219999999      -6.03231562E-11
  0.221249998      -5.66229355E-11
  0.222499996      -4.62369067E-11
  0.223749995      -2.98930707E-11
  0.224999994      -9.05983535E-12
  0.226249993       1.41752070E-11
  0.227500007       3.73075355E-11
  0.228750005       5.76803917E-11
  0.230000004       7.27847227E-11
  0.231250003       8.05611480E-11
  0.232500002       7.96684316E-11
  0.233750001       6.96847094E-11
  0.234999999       5.12132350E-11
  0.236249998       2.58747034E-11
  0.237499997      -3.82026225E-12
  0.238749996      -3.47104949E-11
  0.239999995      -6.33141872E-11
  0.241249993      -8.62157151E-11
  0.242500007      -1.00467322E-10
  0.243750006      -1.03959251E-10
  0.245000005      -9.57128959E-11
  0.246250004      -7.60582569E-11
  0.247500002      -4.66679854E-11
  0.248750001      -1.04362907E-11
  0.250000000       2.87920868E-11
  0.251249999       6.66190575E-11
  0.252499998       9.85769522E-11
  0.253749996       1.20646729E-10
  0.254999995       1.29751779E-10
  0.256249994       1.24167635E-10
  0.257499993       1.03795555E-10
  0.258749992       7.02599784E-11
  0.259999990       2.68095823E-11
  0.261249989      -2.19774199E-11
  0.262499988      -7.06588468E-11
  0.263749987      -1.13519916E-10
  0.264999986      -1.45227275E-10
  0.266250014      -1.61472613E-10
  0.267500013      -1.59529792E-10
  0.268750012      -1.38656073E-10
  0.270000011      -1.00282047E-10
  0.271250010      -4.79583352E-11
  0.272500008       1.29481269E-11
  0.273750007       7.57845939E-11
  0.275000006       1.33319702E-10
  0.276250005       1.78553436E-10
  0.277500004       2.05541237E-10
  0.278750002       2.10136367E-10
  0.280000001       1.90561678E-10
  0.281250000       1.47734727E-10
  0.282499999       8.52982684E-11
  0.283749998       9.33777534E-12
  0.284999996      -7.21955343E-11
  0.286249995      -1.50303672E-10
  0.287499994      -2.15919088E-10
  0.288749993      -2.60935329E-10
  0.289999992      -2.79174961E-10
  0.291249990      -2.67181027E-10
  0.292499989      -2.24733995E-10
  0.293749988      -1.55023022E-10
  0.294999987      -6.44380244E-11
  0.296249986       3.80095608E-11
  0.297500014       1.41586270E-10
  0.298750013       2.34966380E-10
  0.300000012       3.07473103E-10
  0.301250011       3.50293905E-10
  0.302500010       3.57531588E-10
  0.303750008       3.26966426E-10
  0.305000007       2.60432759E-10
  0.306250006       1.63754857E-10
  0.307500005       4.62349291E-11
  0.308750004      -8.02635042E-11
  0.310000002      -2.02545203E-10
  0.311250001      -3.07497111E-10
  0.312500000      -3.83531290E-10
  0.313749999      -4.21895768E-10
  0.314999998      -4.17701790E-10
  0.316249996      -3.70544928E-10
  0.317499995      -2.84638757E-10
  0.318749994      -1.68437861E-10
  0.319999993      -3.37785945E-11
  0.321249992       1.05372232E-10
  0.322499990       2.34427644E-10
  0.323749989       3.39782757E-10
  0.324999988       4.10327688E-10
  0.326249987       4.38697800E-10
  0.327499986       4.22113650E-10
  0.328750014       3.62709141E-10
  0.330000013       2.67303318E-10
  0.331250012       1.46635107E-10
  0.332500011       1.41445492E-11
  0.333750010      -1.15564537E-10
  0.335000008      -2.28402158E-10
  0.336250007      -3.12414594E-10
  0.337500006      -3.59161284E-10
  0.338750005      -3.64679426E-10
  0.340000004      -3.29917205E-10
  0.341250002      -2.60579724E-10
  0.342500001      -1.66400005E-10
  0.343750000      -5.99171129E-11
  0.344999999       4.50940327E-11
  0.346249998       1.35353506E-10
  0.347499996       1.99756309E-10
  0.348749995       2.30790789E-10
  0.349999994       2.25516841E-10
  0.351249993       1.85971100E-10
  0.352499992       1.18937443E-10
  0.353749990       3.50981744E-11
  0.354999989      -5.23416657E-11
  0.356249988      -1.29395328E-10
  0.357499987      -1.83188409E-10
  0.358749986      -2.03769585E-10
  0.360000014      -1.85601534E-10
  0.361250013      -1.28527924E-10
  0.362500012      -3.80749911E-11
  0.363750011       7.49828186E-11
  0.365000010       1.95768429E-10
  0.366250008       3.07044279E-10
  0.367500007       3.91363636E-10
  0.368750006       4.33372421E-10
  0.370000005       4.21986501E-10
  0.371250004       3.52158053E-10
  0.372500002       2.25990782E-10
  0.373750001       5.30273707E-11
  0.375000000      -1.50367122E-10
  0.376249999      -3.62509855E-10
  0.377499998      -5.58656954E-10
  0.378749996      -7.13776649E-10
  0.379999995      -8.05545242E-10
  0.381249994      -8.17209411E-10
  0.382499993      -7.39964978E-10
  0.383749992      -5.74560621E-10
  0.384999990      -3.31876693E-10
  0.386249989      -3.23539529E-11
  0.387499988       2.95703878E-10
  0.388749987       6.18830320E-10
  0.389999986       9.01844266E-10
  0.391250014       1.11169374E-09
  0.392500013       1.22124033E-09
  0.393750012       1.21260235E-09
  0.395000011       1.07962084E-09
  0.396250010       8.29157576E-10
  0.397500008       4.80990137E-10
  0.398750007       6.63325436E-11
  0.400000006      -3.75076942E-10
  0.401250005      -7.98801580E-10
  0.402500004      -1.16033305E-09
  0.403750002      -1.41983303E-09
  0.405000001      -1.54656210E-09
  0.406250000      -1.52253066E-09
  0.407499999      -1.34483802E-09
  0.408749998      -1.02654862E-09
  0.409999996      -5.95758887E-10
  0.411249995      -9.31281302E-11
  0.412499994       4.31997604E-10
  0.413749993       9.26661525E-10
  0.414999992       1.33967293E-09
  0.416249990       1.62713421E-09
  0.417499989       1.75714643E-09
  0.418749988       1.71351655E-09
  0.419999987       1.49762447E-09
  0.421249986       1.12892451E-09
  0.422500014       6.42908948E-10
  0.423750013       8.78653192E-11
  0.425000012      -4.80048834E-10
  0.426250011      -1.00252229E-09
  0.427500010      -1.42539691E-09
  0.428750008      -1.70406855E-09
  0.430000007      -1.80862947E-09
  0.431250006      -1.72695236E-09
  0.432500005      -1.46619650E-09
  0.433750004      -1.05219333E-09
  0.435000002      -5.27191901E-10
  0.436250001       5.50871640E-11
  0.437500000       6.34238939E-10
  0.438749999       1.14996990E-09
  0.439999998       1.54819790E-09
  0.441249996       1.78712556E-09
  0.442499995       1.84111382E-09
  0.443749994       1.70414705E-09
  0.444999993       1.38967371E-09
  0.446249992       9.30108324E-10
  0.447499990       3.73112624E-10
  0.448749989      -2.23576477E-10
  0.449999988      -7.97729494E-10
  0.451249987      -1.28893340E-09
  0.452499986      -1.64612413E-09
  0.453750014      -1.83103421E-09
  0.455000013      -1.82347815E-09
  0.456250012      -1.62308922E-09
  0.457500011      -1.24862376E-09
  0.458750010      -7.37445549E-10
  0.460000008      -1.40369119E-10
  0.461250007       4.82623774E-10
  0.462500006       1.06844389E-09
  0.463750005       1.55861490E-09
  0.465000004       1.90351646E-09
  0.466250002       2.06718442E-09
  0.467500001       2.03229478E-09
  0.468750000       1.80023196E-09
  0.469999999       1.39245260E-09
  0.471249998       8.45231274E-10
  0.472499996       2.10459788E-10
  0.473749995      -4.54453697E-10
  0.474999994      -1.08783427E-09
  0.476249993      -1.63074210E-09
  0.477499992      -2.03310457E-09
  0.478749990      -2.25881736E-09
  0.479999989      -2.28513275E-09
  0.481249988      -2.11090101E-09
  0.482499987      -1.75113390E-09
  0.483749986      -1.23680710E-09
  0.485000014      -6.08497031E-10
  0.486250013       7.81015252E-11
  0.487500012       7.67118036E-10
  0.488750011       1.40146117E-09
  0.490000010       1.93089411E-09
  0.491250008       2.31363151E-09
  0.492500007       2.51370946E-09
  0.493750006       2.51713694E-09
  0.495000005       2.32340902E-09
  0.496250004       1.94286653E-09
  0.497500002       1.40646128E-09
  0.498750001       7.51037621E-10
  0.500000000       2.41558371E-11
  0.501250029      -7.18442472E-10
  0.502499998      -1.42225998E-09
  0.503750026      -2.03632067E-09
  0.504999995      -2.51144416E-09
  0.506250024      -2.81248824E-09
  0.507499993      -2.91001556E-09
  0.508750021      -2.78637224E-09
  0.509999990      -2.45450549E-09
  0.511250019      -1.92321781E-09
  0.512499988      -1.23442434E-09
  0.513750017      -4.30632391E-10
  0.514999986       4.21770535E-10
  0.516250014       1.26987165E-09
  0.517499983       2.04482453E-09
  0.518750012       2.67843703E-09
  0.519999981       3.11879522E-09
  0.521250010       3.32417138E-09
  0.522499979       3.25814908E-09
  0.523750007       2.92279179E-09
  0.524999976       2.34477704E-09
  0.526250005       1.55745294E-09
  0.527499974       6.05145989E-10
  0.528750002      -4.16658846E-10
  0.529999971      -1.43294121E-09
  0.531250000      -2.34744735E-09
  0.532500029      -3.09187675E-09
  0.533749998      -3.56947694E-09
  0.535000026      -3.74169007E-09
  0.536249995      -3.59093311E-09
  0.537500024      -3.11093862E-09
  0.538749993      -2.36163800E-09
  0.540000021      -1.38338530E-09
  0.541249990      -2.68132155E-10
  0.542500019       8.73201844E-10
  0.543749988       1.94871164E-09
  0.545000017       2.86034219E-09
  0.546249986       3.46834628E-09
  0.547500014       3.74746500E-09
  0.548749983       3.65760222E-09
  0.550000012       3.19955684E-09
  0.551249981       2.40910469E-09
  0.552500010       1.34591915E-09
  0.553749979       1.45169779E-10
  0.555000007      -1.10271747E-09
  0.556249976      -2.27116526E-09
  0.557500005      -3.20556648E-09
  0.558749974      -3.84296150E-09
  0.560000002      -4.08705514E-09
  0.561249971      -3.90193078E-09
  0.562500000      -3.32970251E-09
  0.563750029      -2.37670905E-09
  0.564999998      -1.18905874E-09
  0.566250026       1.42493614E-10
  0.567499995       1.44714363E-09
  0.568750024       2.59901789E-09
  0.569999993       3.49862916E-09
  0.571250021       4.01785050E-09
  0.572499990       4.10517798E-09
  0.573750019       3.76943765E-09
  0.574999988       3.05354209E-09
  0.576250017       1.97068450E-09
  0.577499986       7.09932779E-10
  0.578750014      -5.69223280E-10
  0.579999983      -1.82964621E-09
  0.581250012      -2.83146795E-09
  0.582499981      -3.51858298E-09
  0.583750010      -3.72093800E-09
  0.584999979      -3.46102214E-09
  0.586250007      -2.76249823E-09
  0.587499976      -1.68001624E-09
  0.588750005      -3.54050872E-10
  0.589999974       1.08045140E-09
  0.591250002       2.46354337E-09
  0.592499971       3.60292307E-09
  0.593750000       4.38433734E-09
  0.595000029       4.69107464E-09
  0.596249998       4.46569004E-09
  0.597500026       3.78463172E-09
  0.598749995       2.60785615E-09
  0.600000024       1.17703958E-09
  0.601249993      -4.40133902E-10
  0.602500021      -2.03688399E-09
  0.603749990      -3.41594997E-09
  0.605000019      -4.46434623E-09
  0.606249988      -5.03821740E-09
  0.607500017      -4.97427166E-09
  0.608749986      -4.31988090E-09
  0.610000014      -3.19209170E-09
  0.611249983      -1.58259472E-09
  0.612500012       2.75080764E-10
  0.613749981       2.22069385E-09
  0.615000010       3.97615896E-09
  0.616249979       5.33029443E-09
  0.617500007       6.16394047E-09
  0.618749976       6.32713926E-09
  0.620000005       5.85036064E-09
  0.621249974       4.76628248E-09
  0.622500002       3.03391690E-09
  0.623749971       9.72336989E-10
  0.625000000      -1.28248956E-09
  0.626250029      -3.41749939E-09
  0.627499998      -5.25531485E-09
  0.628750026      -6.63940458E-09
  0.629999995      -7.41323625E-09
  0.631250024      -7.45906004E-09
  0.632499993      -6.83819135E-09
  0.633750021      -5.59955327E-09
  0.634999990      -3.80662213E-09
  0.636250019      -1.79490312E-09
  0.637499988       3.29589855E-10
  0.638750017       2.25952146E-09
  0.639999986       3.86221100E-09
  0.641250014       4.93398833E-09
  0.642499983       5.34583489E-09
  0.643750012       5.14235277E-09
  0.644999981       4.38791137E-09
  0.646250010       3.31233108E-09
  0.647499979       1.98753947E-09
  0.648750007       5.89646554E-10
  0.649999976      -6.11619255E-10
  0.651250005      -1.66738656E-09
  0.652499974      -2.16745244E-09
  0.653750002      -2.22557661E-09
  0.654999971      -1.71245873E-09
  0.656250000      -8.88624951E-10
  0.657500029       3.28005290E-10
  0.658749998       1.74076964E-09
  0.660000026       2.94104940E-09
  0.661249995       3.93317601E-09
  0.662500024       4.56774085E-09
  0.663749993       4.53204674E-09
  0.665000021       3.92021793E-09
  0.666249990       2.64269318E-09
  0.667500019       9.10421516E-10
  0.668749988      -1.16308363E-09
  0.670000017      -3.35097106E-09
  0.671249986      -5.30728883E-09
  0.672500014      -7.17125559E-09
  0.673749983      -8.18350010E-09
  0.675000012      -8.59832827E-09
  0.676249981      -8.23521606E-09
  0.677500010      -6.89847512E-09
  0.678749979      -4.74412198E-09
  0.680000007      -2.13172324E-09
  0.681249976       8.23129509E-10
  0.682500005       3.75413167E-09
  0.683749974       6.25939034E-09
  0.685000002       8.32270697E-09
  0.686249971       9.49063850E-09
  0.687500000       9.74520198E-09
  0.688750029       8.92108609E-09
  0.689999998       7.21041182E-09
  0.691250026       4.75801931E-09
  0.692499995       1.72119141E-09
  0.693750024      -1.55423685E-09
  0.694999993      -4.83651963E-09
  0.696250021      -7.51427276E-09
  0.697499990      -9.41640987E-09
  0.698750019      -1.05071551E-08
  0.699999988      -1.03857420E-08
  0.701250017      -9.23433774E-09
  0.702499986      -7.04956094E-09
  0.703750014      -4.19182422E-09
  0.704999983      -9.27523114E-10
  0.706250012       2.46732279E-09
  0.707499981       5.44151924E-09
  0.708750010       7.65211894E-09
  0.709999979       8.97235619E-09
  0.711250007       9.25405708E-09
  0.712499976       8.37580760E-09
  0.713750005       6.53542154E-09
  0.714999974       3.63905706E-09
  0.716250002       2.92334934E-10
  0.717499971      -3.20116489E-09
  0.718750000      -6.48464216E-09
  0.720000029      -9.41925382E-09
  0.721249998      -1.14759358E-08
  0.722500026      -1.24503972E-08
  0.723749995      -1.21696004E-08
  0.725000024      -1.05777334E-08
  0.726249993      -7.89693999E-09
  0.727500021      -4.66928363E-09
  0.728749990      -9.82806947E-10
  0.730000019       2.92151836E-09
  0.731249988       6.35915942E-09
  0.732500017       9.30070154E-09
  0.733749986       1.12298819E-08
  0.735000014       1.20617676E-08
  0.736249983       1.15829240E-08
  0.737500012       1.01124931E-08
  0.738749981       7.68385711E-09
  0.740000010       4.69862727E-09
  0.741249979       1.34380640E-09
  0.742500007      -1.87232385E-09
  0.743749976      -4.81520468E-09
  0.745000005      -7.07702652E-09
  0.746249974      -8.58694271E-09
  0.747500002      -9.03357922E-09
  0.748749971      -8.41773407E-09
  0.750000000      -7.00721170E-09
  0.751250029      -4.76604756E-09
  0.752499998      -2.25909891E-09
  0.753750026       3.68558462E-10
  0.754999995       2.98438452E-09
  0.756250024       5.16188425E-09
  0.757499993       6.65630662E-09
  0.758750021       7.66094566E-09
  0.759999990       7.94903077E-09
  0.761250019       7.22900406E-09
  0.762499988       6.17560758E-09
  0.763750017       4.69543471E-09
  0.764999986       2.96424285E-09
  0.766250014       1.09828069E-09
  0.767499983      -4.07480105E-10
  0.768750012      -1.46120516E-09
  0.769999981      -2.18747664E-09
  0.771250010      -2.53547094E-09
  0.772499979      -2.55794830E-09
  0.773750007      -2.24858221E-09
  0.774999976      -1.70421899E-09
  0.776250005      -1.20904486E-09
  0.777499974      -7.85788046E-10
  0.778750002      -7.71120556E-10
  0.779999971      -1.19375376E-09
  0.781250000      -1.65748015E-09
  0.782500029      -2.51724241E-09
  0.783749998      -2.99790615E-09
  0.785000026      -3.63908037E-09
  0.786249995      -3.77718434E-09
  0.787500024      -3.41637252E-09
  0.788749993      -2.58587174E-09
  0.790000021      -1.01806641E-09
  0.791249990       1.32850064E-09
  0.792500019       4.05921341E-09
  0.793749988       6.97899472E-09
  0.795000017       1.01676125E-08
  0.796249986       1.28444269E-08
  0.797500014       1.47080650E-08
  0.798749983       1.56779603E-08
  0.800000012       1.53179460E-08
  0.801249981       1.36771341E-08
  0.802500010       1.04908171E-08
  0.803749979       6.05262196E-09
  0.805000007       8.31392732E-10
  0.806249976      -4.83999418E-09
  0.807500005      -1.05950457E-08
  0.808749974      -1.59032272E-08
  0.810000002      -1.99327204E-08
  0.811249971      -2.25621619E-08
  0.812500000      -2.34101751E-08
  0.813750029      -2.22172201E-08
  0.814999998      -1.92662633E-08
  0.816250026      -1.46048684E-08
  0.817499995      -8.71370798E-09
  0.818750024      -2.14815588E-09
  0.819999993       4.67698325E-09
  0.821250021       1.09924319E-08
  0.822499990       1.64684586E-08
  0.823750019       2.03235331E-08
  0.824999988       2.22151542E-08
  0.826250017       2.21038832E-08
  0.827499986       1.98390797E-08
  0.828750014       1.56998858E-08
  0.829999983       1.04217532E-08
  0.831250012       4.11459133E-09
  0.832499981      -2.17130225E-09
  0.833750010      -7.62145991E-09
  0.834999979      -1.23648540E-08
  0.836250007      -1.55197668E-08
  0.837499976      -1.68496648E-08
  0.838750005      -1.59508158E-08
  0.839999974      -1.33968125E-08
  0.841250002      -9.37088007E-09
  0.842499971      -4.46488624E-09
  0.843750000       9.34190059E-10
  0.845000029       6.15408124E-09
  0.846249998       1.05582370E-08
  0.847500026       1.35178793E-08
  0.848749995       1.47789594E-08
  0.850000024       1.40046108E-08
  0.851249993       1.13834329E-08
  0.852500021       6.94796087E-09
  0.853749990       1.47066559E-09
  0.855000019      -4.75172790E-09
  0.856249988      -1.06546727E-08
  0.857500017      -1.58847282E-08
  0.858749986      -1.98503241E-08
  0.860000014      -2.19996057E-08
  0.861249983      -2.21156675E-08
  0.862500012      -2.03128767E-08
  0.863749981      -1.64370491E-08
  0.865000010      -1.13393934E-08
  0.866249979      -5.02723108E-09
  0.867500007       1.63499103E-09
  0.868749976       7.94039234E-09
  0.870000005       1.34694265E-08