 -0.200000003       0.00000000    
 -0.198750004       0.00000000    
 -0.197500005       0.00000000    
 -0.196250007       0.00000000    
 -0.194999993       0.00000000    
 -0.193749994       0.00000000    
 -0.192499995       0.00000000    
 -0.191249996       0.00000000    
 -0.189999998       0.00000000    
 -0.188749999      -3.80042289E-38
 -0.187500000      -6.59190349E-37
 -0.186250001      -5.85844243E-36
 -0.185000002      -3.56237150E-35
 -0.183750004      -1.67230211E-34
 -0.182500005      -6.49621433E-34
 -0.181250006      -2.19042095E-33
 -0.180000007      -6.64911767E-33
 -0.178749993      -1.86925157E-32
 -0.177499995      -4.96450643E-32
 -0.176249996      -1.25885394E-31
 -0.174999997      -3.05345684E-31
 -0.173749998      -7.05572287E-31
 -0.172499999      -1.54249638E-30
 -0.171250001      -3.16653878E-30
 -0.170000002      -6.05928556E-30
 -0.168750003      -1.07236381E-29
 -0.167500004      -1.73805954E-29
 -0.166250005      -2.54126366E-29
 -0.165000007      -3.26166377E-29
 -0.163749993      -3.45884138E-29
 -0.162499994      -2.49401593E-29
 -0.161249995       2.58175573E-30
 -0.159999996       4.89555864E-29
 -0.158749998       1.01296344E-28
 -0.157499999       1.22303689E-28
 -0.156250000       4.24959482E-29
 -0.155000001      -2.35955981E-28
 -0.153750002      -8.11822805E-28
 -0.152500004      -1.72256965E-27
 -0.151250005      -2.84426265E-27
 -0.150000006      -3.76945628E-27
 -0.148750007      -3.70826332E-27
 -0.147499993      -1.49183699E-27
 -0.146249995       4.21761401E-27
 -0.144999996       1.44118524E-26
 -0.143749997       2.88791531E-26
 -0.142499998       4.51011347E-26
 -0.141249999       5.72060543E-26
 -0.140000001       5.55191307E-26
 -0.138750002       2.74385945E-26
 -0.137500003      -3.96214295E-26
 -0.136250004      -1.52784990E-25
 -0.135000005      -3.06059222E-25
 -0.133750007      -4.71923365E-25
 -0.132499993      -5.95029498E-25
 -0.131249994      -5.92153311E-25
 -0.129999995      -3.63046090E-25
 -0.128749996       1.84121232E-25
 -0.127499998       1.09207557E-24
 -0.126249999       2.30319242E-24
 -0.125000000       3.60939323E-24
 -0.123750001       4.62214194E-24
 -0.122500002       4.78639698E-24
 -0.121250004       3.46176344E-24
 -0.119999997       8.49399632E-26
 -0.118749999      -5.59193874E-24
 -0.117500000      -1.32214413E-23
 -0.116250001      -2.16077916E-23
 -0.115000002      -2.85791874E-23
 -0.113750003      -3.10985377E-23
 -0.112499997      -2.57113230E-23
 -0.111249998      -9.37559450E-24
 -0.109999999       1.93768567E-23
 -0.108750001       5.91286085E-23
 -0.107500002       1.04433547E-22
 -0.106250003       1.45272939E-22
 -0.104999997       1.67575640E-22
 -0.103749998       1.55180085E-22
 -0.102499999       9.33750609E-23
 -0.101250000      -2.62361332E-23
 -0.100000001      -2.00302134E-22
  -9.87500027E-02  -4.08982021E-22
  -9.74999964E-02  -6.13532088E-22
  -9.62499976E-02  -7.57936952E-22
  -9.49999988E-02  -7.75937167E-22
  -9.37500000E-02  -6.03917426E-22
  -9.25000012E-02  -1.98732919E-22
  -9.12500024E-02   4.42153331E-22
  -9.00000036E-02   1.26253884E-21
  -8.87499973E-02   2.13689045E-21
  -8.74999985E-02   2.87306585E-21
  -8.62499997E-02   3.23294838E-21
  -8.50000009E-02   2.97278655E-21
  -8.37500021E-02   1.90071867E-21
  -8.25000033E-02  -5.62994629E-23
  -8.12499970E-02  -2.78915548E-21
  -7.99999982E-02  -5.96363254E-21
  -7.87499994E-02  -9.01564991E-21
  -7.75000006E-02  -1.11994487E-20
  -7.62500018E-02  -1.16957789E-20
  -7.50000030E-02  -9.77518508E-21
  -7.37499967E-02  -4.99672868E-21
  -7.24999979E-02   2.59238303E-21
  -7.12499991E-02   1.23022033E-20
  -7.00000003E-02   2.27406523E-20
  -6.87500015E-02   3.18932604E-20
  -6.75000027E-02   3.73676483E-20
  -6.62499964E-02   3.67985868E-20
  -6.49999976E-02   2.83717716E-20
  -6.37499988E-02   1.13853576E-20
  -6.25000000E-02  -1.32637288E-20
  -6.12500012E-02  -4.27973814E-20
  -5.99999987E-02  -7.25976034E-20
  -5.87499999E-02  -9.66533727E-20
  -5.75000010E-02  -1.08428541E-19
  -5.62499985E-02  -1.02078779E-19
  -5.49999997E-02  -7.38508143E-20
  -5.37500009E-02  -2.34145024E-20
  -5.24999984E-02   4.51714059E-20
  -5.12499996E-02   1.23156259E-19
  -5.00000007E-02   1.97686628E-19
  -4.87499982E-02   2.53384085E-19
  -4.74999994E-02   2.74823236E-19
  -4.62500006E-02   2.49610926E-19
  -4.50000018E-02   1.71572368E-19
  -4.37499993E-02   4.34133918E-20
  -4.25000004E-02  -1.21806029E-19
  -4.12500016E-02  -3.00953691E-19
  -3.99999991E-02  -4.63191054E-19
  -3.87500003E-02  -5.74392563E-19
  -3.75000015E-02  -6.03158441E-19
  -3.62499990E-02  -5.27535676E-19
  -3.50000001E-02  -3.41232398E-19
  -3.37500013E-02  -5.79639641E-20
  -3.24999988E-02   2.87325709E-19
  -3.12500000E-02   6.41237132E-19
  -2.99999993E-02   9.38908518E-19
  -2.87500005E-02   1.11463684E-18
  -2.74999999E-02   1.11467747E-18
  -2.62499992E-02   9.10043844E-19
  -2.50000004E-02   5.06711301E-19
  -2.37499997E-02  -4.93385770E-20
  -2.25000009E-02  -6.74232332E-19
  -2.12500002E-02  -1.25638881E-18
  -1.99999996E-02  -1.67420601E-18
  -1.87500007E-02  -1.81903924E-18
  -1.75000001E-02  -1.61975344E-18
  -1.62499994E-02  -1.06410985E-18
  -1.49999997E-02  -2.11989977E-19
  -1.37499999E-02   8.03812657E-19
  -1.25000002E-02   1.79177516E-18
  -1.12500004E-02   2.53076591E-18
  -9.99999978E-03   2.81100850E-18
  -8.75000004E-03   2.48077711E-18
  -7.49999983E-03   1.49036295E-18
  -6.25000009E-03  -7.62470144E-20
  -4.99999989E-03  -1.99092261E-18
  -3.74999992E-03  -3.89859653E-18
  -2.49999994E-03  -5.36425593E-18
  -1.24999997E-03  -5.94632266E-18
   0.00000000      -5.28711141E-18
   1.24999997E-03  -3.20581767E-18
   2.49999994E-03   2.23891632E-19
   3.74999992E-03   4.63017243E-18
   4.99999989E-03   9.34876302E-18
   6.25000009E-03   1.34873528E-17
   7.49999983E-03   1.60483015E-17
   8.75000004E-03   1.60983327E-17
   9.99999978E-03   1.29627474E-17
   1.12500004E-02   6.41273342E-18
   1.25000002E-02  -3.19046064E-18
   1.37499999E-02  -1.48297767E-17
   1.49999997E-02  -2.68727787E-17
   1.62499994E-02  -3.72320777E-17
   1.75000001E-02  -4.36406694E-17
   1.87500007E-02  -4.40157164E-17
   1.99999996E-02  -3.68637771E-17
   2.12500002E-02  -2.16646775E-17
   2.25000009E-02   8.36505316E-19
   2.37499997E-02   2.84967063E-17
   2.50000004E-02   5.78535017E-17
   2.62499992E-02   8.44405557E-17
   2.74999999E-02   1.03330006E-16
   2.87500005E-02   1.09852232E-16
   2.99999993E-02   1.00405724E-16
   3.12500000E-02   7.32403449E-17
   3.24999988E-02   2.90822443E-17
   3.37500013E-02  -2.85273351E-17
   3.50000001E-02  -9.32815547E-17
   3.62499990E-02  -1.56602535E-16
   3.75000015E-02  -2.08575709E-16
   3.87500003E-02  -2.39248876E-16
   3.99999991E-02  -2.40151814E-16
   4.12500016E-02  -2.05836074E-16
   4.25000004E-02  -1.35201361E-16
   4.37499993E-02  -3.23727621E-17
   4.50000018E-02   9.30728537E-17
   4.62500006E-02   2.26663105E-16
   4.74999994E-02   3.50401701E-16
   4.87499982E-02   4.44869486E-16
   5.00000007E-02   4.91848474E-16
   5.12499996E-02   4.77154729E-16
   5.24999984E-02   3.93292723E-16
   5.37500009E-02   2.41516728E-16
   5.49999997E-02   3.29166599E-17
   5.62499985E-02  -2.11762776E-16
   5.75000010E-02  -4.63714275E-16
   5.87499999E-02  -6.89030015E-16
   5.99999987E-02  -8.52789224E-16
   6.12500012E-02  -9.23832789E-16
   6.25000000E-02  -8.79632440E-16
   6.37499988E-02  -7.10574881E-16
   6.49999976E-02  -4.22980328E-16
   6.62499964E-02  -4.02709870E-17
   6.75000027E-02   3.98102785E-16
   6.87500015E-02   8.40100618E-16
   7.00000003E-02   1.22669810E-15
   7.12499991E-02   1.49913545E-15
   7.24999979E-02   1.60699080E-15
   7.37499967E-02   1.51605186E-15
   7.50000030E-02   1.21486971E-15
   7.62500018E-02   7.18936313E-16
   7.75000006E-02   7.16420401E-17
   7.87499994E-02  -6.58476584E-16
   7.99999982E-02  -1.38422632E-15
   8.12499970E-02  -2.00949376E-15
   8.25000033E-02  -2.44123789E-15
   8.37500021E-02  -2.60232874E-15
   8.50000009E-02  -2.44355876E-15
   8.62499997E-02  -1.95309768E-15
   8.74999985E-02  -1.16183444E-15
   8.87499973E-02  -1.43466020E-16
   9.00000036E-02   9.91195096E-16
   9.12500024E-02   2.10547911E-15
   9.25000012E-02   3.05267540E-15
   9.37500000E-02   3.69467555E-15
   9.49999988E-02   3.92116031E-15
   9.62499976E-02   3.66676031E-15
   9.74999964E-02   2.92366551E-15
   9.87500027E-02   1.74756111E-15
  0.100000001       2.55502856E-16
  0.101250000      -1.38466509E-15
  0.102499999      -2.97260919E-15
  0.103749998      -4.29965274E-15
  0.104999997      -5.17593416E-15
  0.106250003      -5.45709616E-15
  0.107500002      -5.06680921E-15
  0.108750001      -4.01172083E-15
  0.109999999      -2.38621188E-15
  0.111249998      -3.65564570E-16
  0.112499997       1.81234325E-15
  0.113750003       3.87508510E-15
  0.115000002       5.55025666E-15
  0.116250001       6.60220424E-15
  0.117500000       6.86593514E-15
  0.118749999       6.27329245E-15
  0.119999997       4.86723385E-15
  0.121250004       2.80147423E-15
  0.122500002       3.24646553E-16
  0.123750001      -2.24969410E-15
  0.125000000      -4.58377851E-15
  0.126249999      -6.36183958E-15
  0.127499998      -7.33548913E-15
  0.128749996      -7.36162941E-15
  0.129999995      -6.42694126E-15
  0.131249994      -4.65458962E-15
  0.132499993      -2.29111930E-15
  0.133750007       3.25658175E-16
  0.135000005       2.81409417E-15
  0.136250004       4.80520859E-15
  0.137500003       6.00022343E-15
  0.138750002       6.22036009E-15
  0.140000001       5.44067643E-15
  0.141249999       3.80156306E-15
  0.142499998       1.59447113E-15
  0.143749997      -7.77834485E-16
  0.144999996      -2.86221708E-15
  0.146249995      -4.22935324E-15
  0.147499993      -4.55043040E-15
  0.148750007      -3.66424928E-15
  0.150000006      -1.62298172E-15
  0.151250005       1.29297748E-15
  0.152500004       4.59674362E-15
  0.153750002       7.65380157E-15
  0.155000001       9.77279340E-15
  0.156250000       1.03174635E-14
  0.157499999       8.82451461E-15
  0.158749998       5.10942725E-15
  0.159999996      -6.57961217E-16
  0.161249995      -7.92386278E-15
  0.162499994      -1.57775946E-14
  0.163749993      -2.30386829E-14
  0.165000007      -2.83988141E-14
  0.166250005      -3.06045811E-14
  0.167500004      -2.86591734E-14
  0.168750003      -2.20156179E-14
  0.170000002      -1.07319074E-14
  0.171250001       4.43982399E-15
  0.172499999       2.20519844E-14
  0.173749998       4.00601420E-14
  0.174999997       5.60210075E-14
  0.176249996       6.73751623E-14
  0.177499995       7.17861575E-14
  0.178749993       6.74962676E-14
  0.180000007       5.36520427E-14
  0.181250006       3.05511062E-14
  0.182500005      -2.33462715E-16
  0.183750004      -3.58834971E-14
  0.185000002      -7.25362763E-14
  0.186250001      -1.05649640E-13
  0.187500000      -1.30503464E-13
  0.188749999      -1.42788125E-13
  0.189999998      -1.39213172E-13
  0.191249996      -1.18059412E-13
  0.192499995      -7.95961604E-14
  0.193749994      -2.62941880E-14
  0.194999993       3.72162221E-14
  0.196250007       1.04465739E-13
  0.197500005       1.67735183E-13
  0.198750004       2.18868570E-13
  0.200000003       2.50231883E-13
  0.201250002       2.55712931E-13
  0.202500001       2.31641475E-13
  0.203749999       1.77506908E-13
  0.204999998       9.63631776E-14
  0.206249997      -5.16073500E-15
  0.207499996      -1.17286145E-13
  0.208749995      -2.27936702E-13
  0.209999993      -3.23954893E-13
  0.211250007      -3.92569793E-13
  0.212500006      -4.22961362E-13
  0.213750005      -4.07740844E-13
  0.215000004      -3.44160112E-13
  0.216250002      -2.34879038E-13
  0.217500001      -8.81583896E-14
  0.218750000       8.25965002E-14
  0.219999999       2.59944003E-13
  0.221249998       4.24091318E-13
  0.222499996       5.55004827E-13
  0.223749995       6.34731471E-13
  0.224999994       6.49672698E-13
  0.226249993       5.92538117E-13
  0.227500007       4.63721292E-13
  0.228750005       2.71888875E-13
  0.230000004       3.36501016E-14
  0.231250003      -2.27726122E-13
  0.232500002      -4.84470970E-13
  0.233750001      -7.07166151E-13
  0.234999999      -8.68004074E-13
  0.236249998      -9.44107639E-13
  0.237499997      -9.20527001E-13
  0.238749996      -7.92539428E-13
  0.239999995      -5.66935604E-13
  0.241249993      -2.62070015E-13
  0.242500007       9.34179966E-14
  0.243750006       4.63155664E-13
  0.245000005       8.06653680E-13
  0.246250004       1.08364186E-12
  0.247500002       1.25867069E-12
  0.248750001       1.30546528E-12
  0.250000000       1.21051270E-12
  0.251249999       9.75419723E-13
  0.252499998       6.17691499E-13
  0.253749996       1.69740795E-13
  0.254999995      -3.23867967E-13
  0.256249994      -8.10731582E-13
  0.257499993      -1.23607743E-12
  0.258749992      -1.54883040E-12
  0.259999990      -1.70761755E-12
  0.261249989      -1.68601656E-12
  0.262499988      -1.47640266E-12
  0.263749987      -1.09187312E-12
  0.264999986      -5.65919653E-13
  0.266250014       5.02408851E-14
  0.267500013       6.92500798E-13
  0.268750012       1.29042588E-12
  0.270000011       1.77489273E-12
  0.271250010       2.08598113E-12
  0.272500008       2.18023321E-12
  0.273750007       2.03641422E-12
  0.275000006       1.65903966E-12
  0.276250005       1.07914947E-12
  0.277500004       3.52102408E-13
  0.278750002      -4.47507537E-13
  0.280000001      -1.23337191E-12
  0.281250000      -1.91668664E-12
  0.282499999      -2.41609554E-12
  0.283749998      -2.66725596E-12
  0.284999996      -2.63091567E-12
  0.286249995      -2.29850514E-12
  0.287499994      -1.69449199E-12
  0.288749993      -8.75078981E-13
  0.289999992       7.67709803E-14
  0.291249990       1.05957842E-12
  0.292499989       1.96406086E-12
  0.293749988       2.68519885E-12
  0.294999987       3.13433112E-12
  0.296249986       3.24989688E-12
  0.297500014       3.00553636E-12
  0.298750013       2.41451303E-12
  0.300000012       1.52979701E-12
  0.301250011       4.39623164E-13
  0.302500010      -7.41150088E-13
  0.303750008      -1.88305925E-12
  0.305000007      -2.85618729E-12
  0.306250006      -3.54490786E-12
  0.307500005      -3.86155517E-12
  0.308750004      -3.75740845E-12
  0.310000002      -3.22963076E-12
  0.311250001      -2.32321259E-12
  0.312500000      -1.12751594E-12
  0.313749999       2.32381497E-13
  0.314999998       1.60873224E-12
  0.316249996       2.84720728E-12
  0.317499995       3.80428328E-12
  0.318749994       4.36396709E-12
  0.319999993       4.45190629E-12
  0.321249992       4.04517088E-12
  0.322499990       3.17642830E-12
  0.323749989       1.93184748E-12
  0.324999988       4.42768299E-13
  0.326249987      -1.12809827E-12
  0.327499986      -2.60451231E-12
  0.328750014      -3.81664492E-12
  0.330000013      -4.62086142E-12
  0.331250012      -4.91703596E-12
  0.332500011      -4.66130389E-12
  0.333750010      -3.87261837E-12
  0.335000008      -2.63215339E-12
  0.336250007      -1.07540626E-12
  0.337500006       6.22298328E-13
  0.338750005       2.26539642E-12
  0.340000004       3.66061261E-12
  0.341250002       4.63985664E-12
  0.342500001       5.08078865E-12
  0.343750000       4.92254371E-12
  0.344999999       4.17459383E-12
  0.346249998       2.91747355E-12
  0.347499996       1.29502106E-12
  0.348749995      -5.01215443E-13
  0.349999994      -2.25379806E-12
  0.351249993      -3.74504160E-12
  0.352499992      -4.78352861E-12
  0.353749990      -5.22833599E-12
  0.354999989      -5.00797494E-12
  0.356249988      -4.13156271E-12
  0.357499987      -2.69058604E-12
  0.358749986      -8.50682805E-13
  0.360000014       1.16595926E-12
  0.361250013       3.10582918E-12
  0.362500012       4.71420949E-12
  0.363750011       5.76673865E-12
  0.365000010       6.09866107E-12
  0.366250008       5.62812080E-12
  0.367500007       4.37041375E-12
  0.368750006       2.44105929E-12
  0.370000005       4.67938947E-14
  0.371250004      -2.53500281E-12
  0.372500002      -4.98653636E-12
  0.373750001      -6.98632428E-12
  0.375000000      -8.24834385E-12
  0.376249999      -8.55903976E-12
  0.377499998      -7.80765903E-12
  0.378749996      -6.00595875E-12
  0.379999995      -3.29438365E-12
  0.381249994       6.67289574E-14
  0.382499993       3.72068652E-12
  0.383749992       7.25073777E-12
  0.384999990       1.02255582E-11
  0.386249989       1.22491045E-11
  0.387499988       1.30092707E-11
  0.388749987       1.23196314E-11
  0.389999986       1.01490656E-11
  0.391250014       6.63519500E-12
  0.392500013       2.07921874E-12
  0.393750012      -3.07825813E-12
  0.395000011      -8.29867512E-12
  0.396250010      -1.30004514E-11
  0.397500008      -1.66218948E-11
  0.398750007      -1.86854143E-11
  0.400000006      -1.88558908E-11
  0.401250005      -1.69863654E-11
  0.402500004      -1.31452904E-11
  0.403750002      -7.62139137E-12
  0.405000001      -9.04476526E-13
  0.406250000       6.35688811E-12
  0.407499999       1.34173037E-11
  0.408749998       1.95102146E-11
  0.409999996       2.39297193E-11
  0.411249995       2.61098799E-11
  0.412499994       2.56928090E-11
  0.413749993       2.25776411E-11
  0.414999992       1.69442238E-11
  0.416249990       9.24784815E-12
  0.417499989       1.84322121E-13
  0.418749988      -9.37215149E-12
  0.419999987      -1.84527983E-11
  0.421249986      -2.60918388E-11
  0.422500014      -3.14279644E-11
  0.423750013      -3.37991059E-11
  0.425000012      -3.28203159E-11
  0.426250011      -2.84357884E-11
  0.427500010      -2.09386206E-11
  0.428750008      -1.09550719E-11
  0.430000007       6.06464748E-13
  0.431250006       1.26377190E-11
  0.432500005       2.39365992E-11
  0.433750004       3.33268725E-11
  0.435000002       3.97795651E-11
  0.436250001       4.25237033E-11
  0.437500000       4.11344847E-11
  0.438749999       3.55892017E-11
  0.439999998       2.62842560E-11
  0.441249996       1.40099946E-11
  0.442499995      -1.15268336E-13
  0.443749994      -1.47465182E-11
  0.444999993      -2.84395649E-11
  0.446249992      -3.97925755E-11
  0.447499990      -4.75879475E-11
  0.448749989      -5.09201674E-11
  0.449999988      -4.92961470E-11
  0.451249987      -4.26977551E-11
  0.452499986      -3.15989318E-11
  0.453750014      -1.69344434E-11
  0.455000013      -2.19973237E-14
  0.456250012       1.75560035E-11
  0.457500011       3.40999208E-11
  0.458750010       4.79558823E-11
  0.460000008       5.76794723E-11
  0.461250007       6.21836749E-11
  0.462500006       6.08556122E-11
  0.463750005       5.36305444E-11
  0.465000004       4.10149033E-11
  0.466250002       2.40546732E-11
  0.467500001       4.25026160E-12
  0.468750000      -1.65749046E-11
  0.469999999      -3.64402050E-11
  0.471249998      -5.33940704E-11
  0.472499996      -6.57020133E-11
  0.473749995      -7.20193835E-11
  0.474999994      -7.15323079E-11
  0.476249993      -6.40522149E-11
  0.477499992      -5.00530936E-11
  0.478749990      -3.06463778E-11
  0.479999989      -7.49615387E-12
  0.481249988       1.73212694E-11
  0.482499987       4.15004628E-11
  0.483749986       6.27178656E-11
  0.485000014       7.88511548E-11
  0.486250013       8.81861251E-11
  0.487500012       8.95905156E-11
  0.488750011       8.26396659E-11
  0.490000010       6.76828871E-11
  0.491250008       4.58367649E-11
  0.492500007       1.89059428E-11
  0.493750006      -1.07616025E-11
  0.495000005      -4.04745716E-11
  0.496250004      -6.74382633E-11
  0.497500002      -8.90126653E-11
  0.498750001      -1.02961195E-10
  0.500000000      -1.07676160E-10
  0.501250029      -1.02359059E-10
  0.502499998      -8.71205746E-11
  0.503750026      -6.30017080E-11
  0.504999995      -3.19139194E-11
  0.506250024       3.50184812E-12
  0.507499993       4.00960619E-11
  0.508750021       7.44879644E-11
  0.509999990       1.03368626E-10
  0.511250019       1.23813987E-10
  0.512499988       1.33575387E-10
  0.513750017       1.31317790E-10
  0.514999986       1.16783208E-10
  0.516250014       9.08582931E-11
  0.517499983       5.55320859E-11
  0.518750012       1.37563389E-11
  0.519999981      -3.07892323E-11
  0.521250010      -7.40187911E-11
  0.522499979      -1.11814107E-10
  0.523750007      -1.40413292E-10
  0.524999976      -1.56775398E-10
  0.526250005      -1.58897534E-10
  0.527499974      -1.46056667E-10
  0.528750002      -1.18914323E-10
  0.529999971      -7.95170735E-11
  0.531250000      -3.11730017E-11
  0.532500029       2.18402570E-11
  0.533749998       7.46464626E-11
  0.535000026       1.22200833E-10
  0.536249995       1.59779232E-10
  0.537500024       1.83449603E-10
  0.538749993       1.90474747E-10
  0.540000021       1.79620818E-10
  0.541249990       1.51346990E-10
  0.542500019       1.07815777E-10
  0.543749988       5.27376511E-11
  0.545000017      -8.93555889E-12
  0.546249986      -7.14336784E-11
  0.547500014      -1.28705782E-10
  0.548749983      -1.75007051E-10
  0.550000012      -2.05487072E-10
  0.551249981      -2.16710497E-10
  0.552500010      -2.07018583E-10
  0.553749979      -1.76758289E-10
  0.555000007      -1.28341435E-10
  0.556249976      -6.60498947E-11
  0.557500005       4.33866398E-12
  0.558749974       7.60455796E-11
  0.560000002       1.41941958E-10
  0.561249971       1.95246305E-10
  0.562500000       2.30242922E-10
  0.563750029       2.42892234E-10
  0.564999998       2.31277733E-10
  0.566250026       1.95892372E-10
  0.567499995       1.39643311E-10
  0.568750024       6.76321568E-11
  0.569999993      -1.32901329E-11
  0.571250021      -9.51598730E-11
  0.572499990      -1.69668765E-10
  0.573750019      -2.29005259E-10
  0.574999988      -2.66695888E-10
  0.576250017      -2.78295387E-10
  0.577499986      -2.61884431E-10
  0.578750014      -2.18349464E-10
  0.579999983      -1.51379811E-10
  0.581250012      -6.71728922E-11
  0.582499981       2.61658247E-11
  0.583750010       1.19336457E-10
  0.584999979       2.02801567E-10
  0.586250007       2.67798367E-10
  0.587499976       3.07206427E-10
  0.588750005       3.16349502E-10
  0.589999974       2.93557095E-10
  0.591250002       2.40414272E-10
  0.592499971       1.61688316E-10
  0.593750000       6.49090989E-11
  0.595000029      -4.03220825E-11
  0.596249998      -1.43280873E-10
  0.597500026      -2.33244812E-10
  0.598749995      -3.00570346E-10
  0.600000024      -3.37751105E-10
  0.601249993      -3.40242279E-10
  0.602500021      -3.06966841E-10
  0.603749990      -2.40598153E-10
  0.605000019      -1.47327039E-10
  0.606249988      -3.62543225E-11
  0.607500017       8.14092543E-11
  0.608749986       1.93534591E-10
  0.610000014       2.88340019E-10
  0.611249983       3.55558499E-10
  0.612500012       3.87603838E-10
  0.613749981       3.80398879E-10
  0.615000010       3.33878841E-10
  0.616249979       2.52154658E-10
  0.617500007       1.43150561E-10
  0.618749976       1.77571187E-11
  0.620000005      -1.11171669E-10
  0.621249974      -2.30152661E-10
  0.622500002      -3.26543126E-10
  0.623749971      -3.89803717E-10
  0.625000000      -4.12689077E-10
  0.626250029      -3.92081728E-10
  0.627499998      -3.29348854E-10
  0.628750026      -2.30353583E-10
  0.629999995      -1.04908505E-10
  0.631250024       3.42253621E-11
  0.632499993       1.72536652E-10
  0.633750021       2.95365676E-10
  0.634999990       3.89431182E-10
  0.636250019       4.44276449E-10
  0.637499988       4.53396043E-10
  0.638750017       4.14985213E-10
  0.639999986       3.32313566E-10
  0.641250014       2.13411441E-10
  0.642499983       7.02229594E-11
  0.643750012      -8.26184676E-11
  0.644999981      -2.29204253E-10
  0.646250010      -3.53961999E-10
  0.647499979      -4.43396347E-10
  0.648750007      -4.87602680E-10
  0.649999976      -4.81279461E-10
  0.651250005      -4.24420971E-10
  0.652499974      -3.22308208E-10
  0.653750002      -1.85009161E-10
  0.654999971      -2.64229159E-11
  0.656250000       1.37215156E-10
  0.657500029       2.88948560E-10
  0.658749998       4.12928802E-10
  0.660000026       4.96113151E-10
  0.661249995       5.29646826E-10
  0.662500024       5.09927767E-10
  0.663749993       4.38939163E-10
  0.665000021       3.24052202E-10
  0.666249990       1.77361237E-10
  0.667500019       1.43091095E-11
  0.668749988      -1.47862236E-10
  0.670000017      -2.91935254E-10
  0.671249986      -4.02703731E-10
  0.672500014      -4.68535322E-10
  0.673749983      -4.82620333E-10
  0.675000012      -4.43698661E-10
  0.676249981      -3.56223079E-10
  0.677500010      -2.29940414E-10
  0.678749979      -7.87873169E-11
  0.680000007       8.05933098E-11
  0.681249976       2.30619593E-10
  0.682500005       3.54812069E-10
  0.683749974       4.39543901E-10
  0.685000002       4.75477657E-10
  0.686249971       4.58688310E-10
  0.687500000       3.91080140E-10
  0.688750029       2.80097556E-10
  0.689999998       1.37983291E-10
  0.691250026      -1.95343654E-11
  0.692499995      -1.75036929E-10
  0.693750024      -3.11274895E-10
  0.694999993      -4.13102191E-10
  0.696250021      -4.69222605E-10
  0.697499990      -4.73444339E-10
  0.698750019      -4.25371183E-10
  0.699999988      -3.30441785E-10
  0.701250017      -1.99289432E-10
  0.702499986      -4.66226641E-11
  0.703750014       1.10361630E-10
  0.704999983       2.53912558E-10
  0.706250012       3.67648273E-10
  0.707499981       4.38501652E-10
  0.708750010       4.58258265E-10
  0.709999979       4.24358382E-10
  0.711250007       3.40235035E-10
  0.712499976       2.15122364E-10
  0.713750005       6.30321489E-11
  0.714999974      -9.89495222E-11
  0.716250002      -2.52470794E-10
  0.717499971      -3.79976051E-10
  0.718750000      -4.66642225E-10
  0.720000029      -5.02215380E-10
  0.721249998      -4.82128226E-10
  0.722500026      -4.08067247E-10
  0.723749995      -2.87963209E-10
  0.725000024      -1.34855113E-10
  0.726249993       3.42423104E-11
  0.727500021       2.00218508E-10
  0.728749990       3.44182599E-10
  0.730000019       4.49521781E-10
  0.731249988       5.03792341E-10
  0.732500017       5.00135877E-10
  0.733749986       4.38212439E-10
  0.735000014       3.24215654E-10
  0.736249983       1.70142248E-10
  0.737500012      -7.33859327E-12
  0.738749981      -1.88693755E-10
  0.740000010      -3.53717805E-10
  0.741249979      -4.83760254E-10
  0.742500007      -5.63896596E-10
  0.743749976      -5.84614746E-10
  0.745000005      -5.42923040E-10
  0.746249974      -4.42825387E-10
  0.747500002      -2.94838626E-10
  0.748749971      -1.14824351E-10
  0.750000000       7.75941394E-11
  0.751250029       2.61234839E-10
  0.752499998       4.15811524E-10
  0.753750026       5.23999621E-10
  0.754999995       5.73404324E-10
  0.756250024       5.58216917E-10
  0.757499993       4.79750129E-10
  0.758750021       3.46434326E-10
  0.759999990       1.72822159E-10
  0.761250019      -2.20527693E-11
  0.762499988      -2.16527685E-10
  0.763750017      -3.88874044E-10
  0.764999986      -5.19671473E-10
  0.766250014      -5.94032989E-10
  0.767499983      -6.03338546E-10
  0.768750012      -5.46121370E-10
  0.769999981      -4.28285934E-10
  0.771250010      -2.62587674E-10
  0.772499979      -6.72000580E-11
  0.773750007       1.36272382E-10
  0.774999976       3.25201560E-10
  0.776250005       4.78583839E-10
  0.777499974       5.79162274E-10
  0.778750002       6.15428430E-10
  0.779999971       5.83203708E-10
  0.781250000       4.86015062E-10
  0.782500029       3.34704209E-10
  0.783749998       1.46131857E-10
  0.785000026      -5.85049370E-11
  0.786249995      -2.55890753E-10
  0.787500024      -4.23551499E-10
  0.788749993      -5.42213274E-10
  0.790000021      -5.97914940E-10
  0.791249990      -5.83741666E-10
  0.792500019      -5.00711306E-10
  0.793749988      -3.57609220E-10
  0.795000017      -1.70043479E-10
  0.796249986       4.11024929E-11
  0.797500014       2.52023097E-10
  0.798749983       4.38614145E-10
  0.800000012       5.79342463E-10
  0.801249981       6.57799870E-10
  0.802500010       6.64224509E-10
  0.803749979       5.96828531E-10
  0.805000007       4.62352101E-10
  0.806249976       2.75141326E-10
  0.807500005       5.55649936E-11
  0.808749974      -1.72058590E-10
  0.810000002      -3.82053333E-10
  0.811249971      -5.50315071E-10
  0.812500000      -6.57126631E-10
  0.813750029      -6.89313773E-10
  0.814999998      -6.41886655E-10
  0.816250026      -5.18674548E-10
  0.817499995      -3.31976446E-10
  0.818750024      -1.01364972E-10
  0.819999993       1.48360851E-10
  0.821250021       3.89953042E-10
  0.822499990       5.96651839E-10
  0.823750019       7.44997286E-10
  0.824999988       8.17567125E-10
  0.826250017       8.04935618E-10
  0.827499986       7.06834258E-10
  0.828750014       5.32286881E-10
  0.829999983       2.98554154E-10
  0.831250012       2.95093082E-11
  0.832499981      -2.46809045E-10
  0.833750010      -5.01434561E-10
  0.834999979      -7.07494896E-10
  0.836250007      -8.42961034E-10
  0.837499976      -8.93053076E-10
  0.838750005      -8.52148241E-10
  0.839999974      -7.24152793E-10
  0.841250002      -5.22190235E-10
  0.842499971      -2.67367517E-10
  0.843750000       1.36834259E-11
  0.845000029       2.91395269E-10
  0.846249998       5.36752809E-10
  0.847500026       7.24309113E-10
  0.848749995       8.34739555E-10
  0.850000024       8.57155458E-10
  0.851249993       7.89990517E-10
  0.852500021       6.41278808E-10
  0.853749990       4.27877345E-10
  0.855000019       1.73531647E-10
  0.856249988      -9.39262904E-11
  0.857500017      -3.45556417E-10
  0.858749986      -5.54217783E-10
  0.860000014      -6.97577163E-10
  0.861249983      -7.60501606E-10
  0.862500012      -7.36876338E-10
  0.863749981      -6.30047903E-10
  0.865000010      -4.52275939E-10
  0.866249979      -2.23602553E-10
  0.867500007       3.04426692E-11
  0.868749976       2.81779822E-10
  0.870000005       5.02802189E-10