 -0.200000003       0.00000000    
 -0.198750004       0.00000000    
 -0.197500005       0.00000000    
 -0.196250007       0.00000000    
 -0.194999993       0.00000000    
 -0.193749994       0.00000000    
 -0.192499995       0.00000000    
 -0.191249996       0.00000000    
 -0.189999998      -3.99569747E-39
 -0.188749999      -5.74813751E-38
 -0.187500000      -4.79763205E-37
 -0.186250001      -3.27239468E-36
 -0.185000002      -2.00243569E-35
 -0.183750004      -1.08588575E-34
 -0.182500005      -5.10169875E-34
 -0.181250006      -2.06703114E-33
 -0.180000007      -7.27593828E-33
 -0.178749993      -2.25040856E-32
 -0.177499995      -6.18566698E-32
 -0.176249996      -1.52624294E-31
 -0.174999997      -3.40981171E-31
 -0.173749998      -6.95160558E-31
 -0.172499999      -1.30353004E-30
 -0.171250001      -2.27006353E-30
 -0.170000002      -3.72278722E-30
 -0.168750003      -5.87088297E-30
 -0.167500004      -9.16201287E-30
 -0.166250005      -1.45763105E-29
 -0.165000007      -2.40070764E-29
 -0.163749993      -4.04839472E-29
 -0.162499994      -6.76974005E-29
 -0.161249995      -1.07984665E-28
 -0.159999996      -1.57878709E-28
 -0.158749998      -2.00883822E-28
 -0.157499999      -1.98730042E-28
 -0.156250000      -8.51570087E-29
 -0.155000001       2.30135676E-28
 -0.153750002       8.36768701E-28
 -0.152500004       1.76780667E-27
 -0.151250005       2.90906961E-27
 -0.150000006       3.88614491E-27
 -0.148750007       3.96767992E-27
 -0.147499993       2.05491968E-27
 -0.146249995      -3.14748799E-27
 -0.144999996      -1.26845906E-26
 -0.143749997      -2.65814232E-26
 -0.142499998      -4.28182483E-26
 -0.141249999      -5.63008241E-26
 -0.140000001      -5.82969195E-26
 -0.138750002      -3.69998845E-26
 -0.137500003       2.00719017E-26
 -0.136250004       1.21355256E-25
 -0.135000005       2.64323130E-25
 -0.133750007       4.27498614E-25
 -0.132499993       5.63825020E-25
 -0.131249994       5.99055203E-25
 -0.129999995       4.39483088E-25
 -0.128749996      -7.23347625E-27
 -0.127499998      -7.96809714E-25
 -0.126249999      -1.90177897E-24
 -0.125000000      -3.16303838E-24
 -0.123750001      -4.25566635E-24
 -0.122500002      -4.69035908E-24
 -0.121250004      -3.87259944E-24
 -0.119999997      -1.23517474E-24
 -0.118749999       3.55604691E-24
 -0.117500000       1.03479066E-23
 -0.116250001       1.82525453E-23
 -0.115000002       2.54911251E-23
 -0.113750003       2.94303967E-23
 -0.112499997       2.69078404E-23
 -0.111249998       1.49014405E-23
 -0.109999999      -8.47764439E-24
 -0.108750001      -4.28019393E-23
 -0.107500002      -8.42117852E-23
 -0.106250003      -1.24733323E-22
 -0.104999997      -1.52448380E-22
 -0.103749998      -1.52885964E-22
 -0.102499999      -1.11826120E-22
 -0.101250000      -1.93896488E-23
 -0.100000001       1.25136652E-22
  -9.87500027E-02   3.08745921E-22
  -9.74999964E-02   5.01807776E-22
  -9.62499976E-02   6.58343124E-22
  -9.49999988E-02   7.20795260E-22
  -9.37500000E-02   6.29957207E-22
  -9.25000012E-02   3.39608457E-22
  -9.12500024E-02  -1.66019577E-22
  -9.00000036E-02  -8.55334137E-22
  -8.87499973E-02  -1.63761253E-21
  -8.74999985E-02  -2.36142536E-21
  -8.62499997E-02  -2.82763635E-21
  -8.50000009E-02  -2.81932092E-21
  -8.37500021E-02  -2.14756363E-21
  -8.25000033E-02  -7.07740205E-22
  -8.12499970E-02   1.46365136E-21
  -7.99999982E-02   4.14521571E-21
  -7.87499994E-02   6.91512491E-21
  -7.75000006E-02   9.17740411E-21
  -7.62500018E-02   1.02381760E-20
  -7.50000030E-02   9.43081218E-21
  -7.37499967E-02   6.27701605E-21
  -7.24999979E-02   6.58226701E-22
  -7.12499991E-02  -7.03883122E-21
  -7.00000003E-02  -1.58439467E-20
  -6.87500015E-02  -2.42313497E-20
  -6.75000027E-02  -3.02800320E-20
  -6.62499964E-02  -3.19704402E-20
  -6.49999976E-02  -2.75918953E-20
  -6.37499988E-02  -1.62028138E-20
  -6.25000000E-02   1.94249513E-21
  -6.12500012E-02   2.51033322E-20
  -5.99999987E-02   4.99995590E-20
  -5.87499999E-02   7.20723502E-20
  -5.75000010E-02   8.60869288E-20
  -5.62499985E-02   8.70383545E-20
  -5.49999997E-02   7.12459257E-20
  -5.37500009E-02   3.74519238E-20
  -5.24999984E-02  -1.23066106E-20
  -5.12499996E-02  -7.22926839E-20
  -5.00000007E-02  -1.33329146E-19
  -4.87499982E-02  -1.83828122E-19
  -4.74999994E-02  -2.11556534E-19
  -4.62500006E-02  -2.05941244E-19
  -4.50000018E-02  -1.60559272E-19
  -4.37499993E-02  -7.53400238E-20
  -4.25000004E-02   4.20377646E-20
  -4.12500016E-02   1.76016512E-19
  -3.99999991E-02   3.04595276E-19
  -3.87500003E-02   4.02365440E-19
  -3.75000015E-02   4.44856803E-19
  -3.62499990E-02   4.13572677E-19
  -3.50000001E-02   3.00822428E-19
  -3.37500013E-02   1.13321715E-19
  -3.24999988E-02  -1.26420844E-19
  -3.12500000E-02  -3.81647874E-19
  -2.99999993E-02  -6.06080456E-19
  -2.87500005E-02  -7.51470529E-19
  -2.74999999E-02  -7.76965993E-19
  -2.62499992E-02  -6.58705118E-19
  -2.50000004E-02  -3.97704199E-19
  -2.37499997E-02  -2.40852457E-20
  -2.25000009E-02   4.03924494E-19
  -2.12500002E-02   8.07004023E-19
  -1.99999996E-02   1.09744657E-18
  -1.87500007E-02   1.19600659E-18
  -1.75000001E-02   1.05017062E-18
  -1.62499994E-02   6.50318437E-19
  -1.49999997E-02   3.99977240E-20
  -1.37499999E-02  -6.82980129E-19
  -1.25000002E-02  -1.37665839E-18
  -1.12500004E-02  -1.87638870E-18
  -9.99999978E-03  -2.02543507E-18
  -8.75000004E-03  -1.71023707E-18
  -7.49999983E-03  -8.94006466E-19
  -6.25000009E-03   3.58586078E-19
  -4.99999989E-03   1.87250798E-18
  -3.74999992E-03   3.37430753E-18
  -2.49999994E-03   4.52680215E-18
  -1.24999997E-03   4.98425702E-18
   0.00000000       4.46130351E-18
   1.24999997E-03   2.80481064E-18
   2.49999994E-03   5.52078048E-20
   3.74999992E-03  -3.51686053E-18
   4.99999989E-03  -7.41070449E-18
   6.25000009E-03  -1.09400964E-17
   7.49999983E-03  -1.33227066E-17
   8.75000004E-03  -1.38067429E-17
   9.99999978E-03  -1.18186764E-17
   1.12500004E-02  -7.10897795E-18
   1.25000002E-02   1.31197320E-19
   1.37499999E-02   9.20920525E-18
   1.49999997E-02   1.89477465E-17
   1.62499994E-02   2.77911874E-17
   1.75000001E-02   3.39995849E-17
   1.87500007E-02   3.59128470E-17
   1.99999996E-02   3.22522055E-17
   2.12500002E-02   2.24139824E-17
   2.25000009E-02   6.70413963E-18
   2.37499997E-02  -1.35365601E-17
   2.50000004E-02  -3.59569986E-17
   2.62499992E-02  -5.73915908E-17
   2.74999999E-02  -7.42246170E-17
   2.87500005E-02  -8.28916302E-17
   2.99999993E-02  -8.04592626E-17
   3.12500000E-02  -6.52026574E-17
   3.24999988E-02  -3.70876321E-17
   3.37500013E-02   1.93434304E-18
   3.50000001E-02   4.78943861E-17
   3.62499990E-02   9.50834651E-17
   3.75000015E-02   1.36642654E-16
   3.87500003E-02   1.65422107E-16
   3.99999991E-02   1.75016449E-16
   4.12500016E-02   1.60843986E-16
   4.25000004E-02   1.21111907E-16
   4.37499993E-02   5.75052455E-17
   4.50000018E-02  -2.45429682E-17
   4.62500006E-02  -1.16098716E-16
   4.74999994E-02  -2.05525424E-16
   4.87499982E-02  -2.79790044E-16
   5.00000007E-02  -3.26152048E-16
   5.12499996E-02  -3.34038295E-16
   5.24999984E-02  -2.96854184E-16
   5.37500009E-02  -2.13459966E-16
   5.49999997E-02  -8.90561176E-17
   5.62499985E-02   6.47235080E-17
   5.75000010E-02   2.30621952E-16
   5.87499999E-02   3.87467016E-16
   5.99999987E-02   5.12641810E-16
   6.12500012E-02   5.85057992E-16
   6.25000000E-02   5.88269623E-16
   6.37499988E-02   5.13305725E-16
   6.49999976E-02   3.60790402E-16
   6.62499964E-02   1.41973045E-16
   6.75000027E-02  -1.21597231E-16
   6.87500015E-02  -3.99857096E-16
   7.00000003E-02  -6.57384600E-16
   7.12499991E-02  -8.57634465E-16
   7.24999979E-02  -9.67780247E-16
   7.37499967E-02  -9.63557470E-16
   7.50000030E-02  -8.33439286E-16
   7.62500018E-02  -5.81500771E-16
   7.75000006E-02  -2.28446083E-16
   7.87499994E-02   1.89524959E-16
   7.99999982E-02   6.24066188E-16
   8.12499970E-02   1.02000406E-15
   8.25000033E-02   1.32208428E-15
   8.37500021E-02   1.48235530E-15
   8.50000009E-02   1.46723778E-15
   8.62499997E-02   1.26328336E-15
   8.74999985E-02   8.80720453E-16
   8.87499973E-02   3.54108053E-16
   9.00000036E-02  -2.60239332E-16
   9.12500024E-02  -8.89975929E-16
   9.25000012E-02  -1.45507671E-15
   9.37500000E-02  -1.87788814E-15
   9.49999988E-02  -2.09363781E-15
   9.62499976E-02  -2.06000192E-15
   9.74999964E-02  -1.76434623E-15
   9.87500027E-02  -1.22747631E-15
  0.100000001      -5.03126347E-16
  0.101250000       3.27047838E-16
  0.102499999       1.16259666E-15
  0.103749998       1.89654785E-15
  0.104999997       2.42933581E-15
  0.106250003       2.68257113E-15
  0.107500002       2.61072728E-15
  0.108750001       2.20899226E-15
  0.109999999       1.51595710E-15
  0.111249998       6.10460933E-16
  0.112499997      -3.97300910E-16
  0.113750003      -1.37947574E-15
  0.115000002      -2.20738395E-15
  0.116250001      -2.76925670E-15
  0.117500000      -2.98639147E-15
  0.118749999      -2.82532159E-15
  0.119999997      -2.30403295E-15
  0.121250004      -1.49101939E-15
  0.122500002      -4.96950313E-16
  0.123750001       5.40197644E-16
  0.125000000       1.47467060E-15
  0.126249999       2.17444750E-15
  0.127499998       2.54158652E-15
  0.128749996       2.52825041E-15
  0.129999995       2.14570937E-15
  0.131249994       1.46451944E-15
  0.132499993       6.05313620E-16
  0.133750007      -2.78947934E-16
  0.135000005      -1.02703147E-15
  0.136250004      -1.49640271E-15
  0.137500003      -1.58901708E-15
  0.138750002      -1.27167640E-15
  0.140000001      -5.87206544E-16
  0.141249999       3.46172175E-16
  0.142499998       1.34828375E-15
  0.143749997       2.20232060E-15
  0.144999996       2.68916126E-15
  0.146249995       2.62609140E-15
  0.147499993       1.90416797E-15
  0.148750007       5.18065785E-16
  0.150000006      -1.41725447E-15
  0.151250005      -3.66730453E-15
  0.152500004      -5.89830207E-15
  0.153750002      -7.71617877E-15
  0.155000001      -8.72072512E-15
  0.156250000      -8.56851584E-15
  0.157499999      -7.03617733E-15
  0.158749998      -4.07450546E-15
  0.159999996       1.55868105E-16
  0.161249995       5.27497306E-15
  0.162499994       1.07050048E-14
  0.163749993       1.57237877E-14
  0.165000007       1.95466846E-14
  0.166250005       2.14289476E-14
  0.167500004       2.07766916E-14
  0.168750003       1.72520130E-14
  0.170000002       1.08568626E-14
  0.171250001       1.98142966E-15
  0.172499999      -8.59402085E-15
  0.173749998      -1.97498861E-14
  0.174999997      -3.01300732E-14
  0.176249996      -3.82894806E-14
  0.177499995      -4.28717493E-14
  0.178749993      -4.27973324E-14
  0.180000007      -3.74383142E-14
  0.181250006      -2.67555685E-14
  0.182500005      -1.13761344E-14
  0.183750004       7.40591653E-15
  0.185000002       2.77136746E-14
  0.186250001       4.72551279E-14
  0.187500000       6.35620368E-14
  0.188749999       7.42771594E-14
  0.189999998       7.74585271E-14
  0.191249996       7.18642946E-14
  0.192499995       5.71803889E-14
  0.193749994       3.41568272E-14
  0.194999993       4.62672350E-15
  0.196250007      -2.86058442E-14
  0.197500005      -6.20077991E-14
  0.198750004      -9.16713401E-14
  0.200000003      -1.13747526E-13
  0.201250002      -1.24913358E-13
  0.202500001      -1.22818354E-13
  0.203749999      -1.06454484E-13
  0.204999998      -7.63977165E-14
  0.206249997      -3.48808879E-14
  0.207499996       1.43253092E-14
  0.208749995       6.62250948E-14
  0.209999993       1.15082477E-13
  0.211250007       1.55034134E-13
  0.212500006       1.80767280E-13
  0.213750005       1.88186475E-13
  0.215000004       1.74989133E-13
  0.216250002       1.41074083E-13
  0.217500001       8.87218697E-14
  0.218750000       2.25084742E-14
  0.219999999      -5.10570861E-14
  0.221249998      -1.24148386E-13
  0.222499996      -1.88435788E-13
  0.223749995      -2.36017016E-13
  0.224999994      -2.60362587E-13
  0.226249993      -2.57165491E-13
  0.227500007      -2.24988783E-13
  0.228750005      -1.65621328E-13
  0.230000004      -8.40806239E-14
  0.231250003       1.17605426E-14
  0.232500002       1.11904030E-13
  0.233750001       2.05249744E-13
  0.234999999       2.80810965E-13
  0.236249998       3.28990931E-13
  0.237499997       3.42774962E-13
  0.238749996       3.18693233E-13
  0.239999995       2.57427787E-13
  0.241249993       1.63971606E-13
  0.242500007       4.72947114E-14
  0.243750006      -8.04718976E-14
  0.245000005      -2.05266983E-13
  0.246250004      -3.12623950E-13
  0.247500002      -3.89327839E-13
  0.248750001      -4.25017985E-13
  0.250000000      -4.13545608E-13
  0.251249999      -3.53913649E-13
  0.252499998      -2.50666133E-13
  0.253749996      -1.13651344E-13
  0.254999995       4.28477207E-14
  0.256249994       2.01547343E-13
  0.257499993       3.44024342E-13
  0.258749992       4.52809068E-13
  0.259999990       5.13477498E-13
  0.261249989       5.16497598E-13
  0.262499988       4.58599955E-13
  0.263749987       3.43488232E-13
  0.264999986       1.81771238E-13
  0.266250014      -9.91619100E-15
  0.267500013      -2.10542684E-13
  0.268750012      -3.96908824E-13
  0.270000011      -5.46245124E-13
  0.271250010      -6.38895349E-13
  0.272500008      -6.60776718E-13
  0.273750007      -6.05318747E-13
  0.275000006      -4.74628583E-13
  0.276250005      -2.79707870E-13
  0.277500004      -3.96487009E-14
  0.278750002       2.20149799E-13
  0.280000001       4.70586081E-13
  0.281250000       6.82021334E-13
  0.282499999       8.27666928E-13
  0.283749998       8.86814439E-13
  0.284999996       8.47528319E-13
  0.286249995       7.08466326E-13
  0.287499994       4.79577099E-13
  0.288749993       1.81543094E-13
  0.289999992      -1.56025827E-13
  0.291249990      -4.97498310E-13
  0.292499989      -8.04945195E-13
  0.293749988      -1.04229331E-12
  0.294999987      -1.17945649E-12
  0.296249986      -1.19597431E-12
  0.297500014      -1.08372697E-12
  0.298750013      -8.48381586E-13
  0.300000012      -5.09356934E-13
  0.301250011      -9.82525625E-14
  0.302500010       3.44138346E-13
  0.303750008       7.71949562E-13
  0.305000007       1.13907408E-12
  0.306250006       1.40419132E-12
  0.307500005       1.53543487E-12
  0.308750004       1.51416694E-12
  0.310000002       1.33741141E-12
  0.311250001       1.01863494E-12
  0.312500000       5.86742189E-13
  0.313749999       8.33502985E-14
  0.314999998      -4.41398166E-13
  0.316249996      -9.34052423E-13
  0.317499995      -1.34354225E-12
  0.318749994      -1.62671515E-12
  0.319999993      -1.75310038E-12
  0.321249992      -1.70835427E-12
  0.322499990      -1.49597934E-12
  0.323749989      -1.13709790E-12
  0.324999988      -6.68278909E-13
  0.326249987      -1.37637989E-13
  0.327499986       4.00369164E-13
  0.328750014       8.90883396E-13
  0.330000013       1.28464123E-12
  0.331250012       1.54335279E-12
  0.332500011       1.64384012E-12
  0.333750010       1.58045267E-12
  0.335000008       1.36547349E-12
  0.336250007       1.02746305E-12
  0.337500006       6.07728115E-13
  0.338750005       1.55327682E-13
  0.340000004      -2.78795189E-13
  0.341250002      -6.47855792E-13
  0.342500001      -9.14718171E-13
  0.343750000      -1.05616644E-12
  0.344999999      -1.06543095E-12
  0.346249998      -9.52651261E-13
  0.347499996      -7.43207633E-13
  0.348749995      -4.74115701E-13
  0.349999994      -1.88923448E-13
  0.351249993       6.82565102E-14
  0.352499992       2.58824348E-13
  0.353749990       3.55096622E-13
  0.354999989       3.44319435E-13
  0.356249988       2.30733808E-13
  0.357499987       3.53689788E-14
  0.358749986      -2.06479758E-13
  0.360000014      -4.49836701E-13
  0.361250013      -6.46167581E-13
  0.362500012      -7.50294412E-13
  0.363750011      -7.27227035E-13
  0.365000010      -5.58007525E-13
  0.366250008      -2.43749573E-13
  0.367500007       1.92755358E-13
  0.368750006       7.08215387E-13
  0.370000005       1.24281477E-12
  0.371250004       1.72665517E-12
  0.372500002       2.08799818E-12
  0.373750001       2.26238451E-12
  0.375000000       2.20154710E-12
  0.376249999       1.88099905E-12
  0.377499998       1.30526980E-12
  0.378749996       5.09998836E-13
  0.379999995      -4.39577330E-13
  0.381249994      -1.45379889E-12
  0.382499993      -2.42703297E-12
  0.383749992      -3.24861145E-12
  0.384999990      -3.81513484E-12
  0.386249989      -4.04277913E-12
  0.387499988      -3.87818553E-12
  0.388749987      -3.30660174E-12
  0.389999986      -2.35618014E-12
  0.391250014      -1.09771892E-12
  0.392500013       3.60364841E-13
  0.393750012       1.88151643E-12
  0.395000011       3.31415581E-12
  0.396250010       4.50714249E-12
  0.397500008       5.32598488E-12
  0.398750007       5.66806151E-12
  0.400000006       5.47509607E-12
  0.401250005       4.74142210E-12
  0.402500004       3.51696320E-12
  0.403750002       1.90435948E-12
  0.405000001       5.03625665E-14
  0.406250000      -1.86782035E-12
  0.407499999      -3.65992566E-12
  0.408749998      -5.14204217E-12
  0.409999996      -6.15598414E-12
  0.411249995      -6.58653861E-12
  0.412499994      -6.37474535E-12
  0.413749993      -5.52558346E-12
  0.414999992      -4.10912450E-12
  0.416249990      -2.25487012E-12
  0.417499989      -1.39694761E-13
  0.418749988       2.02946969E-12
  0.419999987       4.03643265E-12
  0.421249986       5.67802576E-12
  0.422500014       6.78542162E-12
  0.423750013       7.24215523E-12
  0.425000012       6.99704053E-12
  0.426250011       6.07043365E-12
  0.427500010       4.55298429E-12
  0.428750008       2.59706861E-12
  0.430000007       4.01632422E-13
  0.431250006      -1.80810618E-12
  0.432500005      -3.80382401E-12
  0.433750004      -5.37781755E-12
  0.435000002      -6.36493332E-12
  0.436250001      -6.65999894E-12
  0.437500000      -6.22916996E-12
  0.438749999      -5.11403940E-12
  0.439999998      -3.42768457E-12
  0.441249996      -1.34310737E-12
  0.442499995       9.24542235E-13
  0.443749994       3.14033023E-12
  0.444999993       5.07396816E-12
  0.446249992       6.52383182E-12
  0.447499990       7.33834434E-12
  0.448749989       7.43180430E-12
  0.449999988       6.79348808E-12
  0.451249987       5.48932384E-12
  0.452499986       3.65491274E-12
  0.453750014       1.48168880E-12
  0.455000013      -8.02381382E-13
  0.456250012      -2.95648597E-12
  0.457500011      -4.75130655E-12
  0.458750010      -5.99259965E-12
  0.460000008      -6.54123370E-12
  0.461250007      -6.32732452E-12
  0.462500006      -5.35790726E-12
  0.463750005      -3.71599539E-12
  0.465000004      -1.55216345E-12
  0.466250002       9.29524578E-13
  0.467500001       3.49169912E-12
  0.468750000       5.88702828E-12
  0.469999999       7.88245597E-12
  0.471249998       9.28100825E-12
  0.472499996       9.94081466E-12
  0.473749995       9.78831859E-12
  0.474999994       8.82438914E-12
  0.476249993       7.12527910E-12
  0.477499992       4.83537516E-12
  0.478749990       2.15292389E-12
  0.479999989      -6.87044822E-13
  0.481249988      -3.43456600E-12
  0.482499987      -5.84833787E-12
  0.483749986      -7.71580109E-12
  0.485000014      -8.86911551E-12
  0.486250013      -9.20061249E-12
  0.487500012      -8.67235016E-12
  0.488750011      -7.31698816E-12
  0.490000010      -5.23426615E-12
  0.491250008      -2.58143745E-12
  0.492500007       4.35650566E-13
  0.493750006       3.57992954E-12
  0.495000005       6.60527058E-12
  0.496250004       9.27169279E-12
  0.497500002       1.13650226E-11
  0.498750001       1.27134596E-11
  0.500000000       1.31979557E-11
  0.501250029       1.27640268E-11
  0.502499998       1.14260884E-11
  0.503750026       9.26447547E-12
  0.504999995       6.42212238E-12
  0.506250024       3.09466493E-12
  0.507499993      -4.81899893E-13
  0.508750021      -4.04214249E-12
  0.509999990      -7.31769159E-12
  0.511250019      -1.00537686E-11
  0.512499988      -1.20272941E-11
  0.513750017      -1.30679538E-11
  0.514999986      -1.30734919E-11
  0.516250014      -1.20162153E-11
  0.517499983      -9.94453044E-12
  0.518750012      -6.99249252E-12
  0.519999981      -3.36922265E-12
  0.521250010       6.57631393E-13
  0.522499979       4.77158157E-12
  0.523750007       8.63466937E-12
  0.524999976       1.19268996E-11
  0.526250005       1.43657933E-11
  0.527499974       1.57174187E-11
  0.528750002       1.58352238E-11
  0.529999971       1.46792248E-11
  0.531250000       1.23164820E-11
  0.532500029       8.91690454E-12
  0.533749998       4.75355866E-12
  0.535000026       1.84079287E-13
  0.536249995      -4.39880988E-12
  0.537500024      -8.58747969E-12
  0.538749993      -1.20078392E-11
  0.540000021      -1.43484781E-11
  0.541249990      -1.53806776E-11
  0.542500019      -1.50025097E-11
  0.543749988      -1.32388137E-11
  0.545000017      -1.02331546E-11
  0.546249986      -6.27772400E-12
  0.547500014      -1.76784195E-12
  0.548749983       2.86032504E-12
  0.550000012       7.14604938E-12
  0.551249981       1.06514632E-11
  0.552500010       1.29983533E-11
  0.553749979       1.39302840E-11
  0.555000007       1.33318166E-11
  0.556249976       1.12231396E-11
  0.557500005       7.80018238E-12
  0.558749974       3.39485254E-12
  0.560000002      -1.56140769E-12
  0.561249971      -6.55452385E-12
  0.562500000      -1.10742943E-11
  0.563750029      -1.46408007E-11
  0.564999998      -1.68694069E-11
  0.566250026      -1.75235104E-11
  0.567499995      -1.65299874E-11
  0.568750024      -1.40011371E-11
  0.569999993      -1.01901074E-11
  0.571250021      -5.49230756E-12
  0.572499990      -4.15414963E-13
  0.573750019       4.50621962E-12
  0.574999988       8.77058148E-12
  0.576250017       1.19107233E-11
  0.577499986       1.35861088E-11
  0.578750014       1.36740515E-11
  0.579999983       1.21747577E-11
  0.581250012       9.26156114E-12
  0.582499981       5.29277924E-12
  0.583750010       7.68078689E-13
  0.584999979      -3.72064619E-12
  0.586250007      -7.61034638E-12
  0.587499976      -1.03869179E-11
  0.588750005      -1.16582100E-11
  0.589999974      -1.12042103E-11
  0.591250002      -8.98921389E-12
  0.592499971      -5.19767259E-12
  0.593750000      -2.05635056E-13
  0.595000029       5.46649705E-12
  0.596249998       1.11894747E-11
  0.597500026       1.63459263E-11
  0.598749995       2.03412304E-11
  0.600000024       2.27067896E-11
  0.601249993       2.31673552E-11
  0.602500021       2.16192186E-11
  0.603749990       1.82111964E-11
  0.605000019       1.32860112E-11
  0.606249988       7.34690954E-12
  0.607500017       1.08910418E-12
  0.608749986      -4.71974109E-12
  0.610000014      -9.41472334E-12
  0.611249983      -1.23989022E-11
  0.612500012      -1.32160984E-11
  0.613749981      -1.16562385E-11
  0.615000010      -7.78320550E-12
  0.616249979      -1.96667227E-12
  0.617500007       5.21722422E-12
  0.618749976       1.30241486E-11
  0.620000005       2.06350874E-11
  0.621249974       2.72704897E-11
  0.622500002       3.21456160E-11
  0.623749971       3.46495263E-11
  0.625000000       3.44556814E-11
  0.626250029       3.15181874E-11
  0.627499998       2.60976778E-11
  0.628750026       1.86634770E-11
  0.629999995       9.88057639E-12
  0.631250024       5.85391490E-13
  0.632499993      -8.35039069E-12
  0.633750021      -1.61239806E-11
  0.634999990      -2.20028405E-11
  0.636250019      -2.55037935E-11
  0.637499988      -2.64196148E-11
  0.638750017      -2.48014213E-11
  0.639999986      -2.09753395E-11
  0.641250014      -1.54777146E-11
  0.642499983      -9.05282533E-12
  0.643750012      -2.49770820E-12
  0.644999981       3.45870685E-12
  0.646250010       8.27135842E-12
  0.647499979       1.15837773E-11
  0.648750007       1.31945184E-11
  0.649999976       1.31807855E-11
  0.651250005       1.17564066E-11
  0.652499974       9.35963199E-12
  0.653750002       6.61398887E-12
  0.654999971       4.15271680E-12
  0.656250000       2.52703956E-12
  0.657500029       2.17665230E-12
  0.658749998       3.46963669E-12
  0.660000026       6.39577367E-12
  0.661249995       1.06921642E-11
  0.662500024       1.60052371E-11
  0.663749993       2.16926043E-11
  0.665000021       2.69752692E-11
  0.666249990       3.10770888E-11
  0.667500019       3.32977847E-11
  0.668749988       3.31398693E-11
  0.670000017       3.03185844E-11
  0.671249986       2.49071718E-11
  0.672500014       1.71080823E-11
  0.673749983       7.51136046E-12
  0.675000012      -2.97728205E-12
  0.676249981      -1.34982468E-11
  0.677500010      -2.29568049E-11
  0.678749979      -3.02334303E-11
  0.680000007      -3.45308331E-11
  0.681249976      -3.53487031E-11
  0.682500005      -3.24879151E-11
  0.683749974      -2.62294648E-11
  0.685000002      -1.71156544E-11
  0.686249971      -5.98231404E-12
  0.687500000       6.04008597E-12
  0.688750029       1.77065151E-11
  0.689999998       2.77887019E-11
  0.691250026       3.52689718E-11
  0.692499995       3.93184790E-11
  0.693750024       3.94228261E-11
  0.694999993       3.54286045E-11
  0.696250021       2.77093591E-11
  0.697499990       1.71276830E-11
  0.698750019       4.67545534E-12
  0.699999988      -8.38260537E-12
  0.701250017      -2.06451557E-11
  0.702499986      -3.08225910E-11
  0.703750014      -3.78484570E-11
  0.704999983      -4.10480504E-11
  0.706250012      -4.00856778E-11
  0.707499981      -3.51426527E-11
  0.708750010      -2.69591294E-11
  0.709999979      -1.65688331E-11
  0.711250007      -5.17732515E-12
  0.712499976       5.84134000E-12
  0.713750005       1.51608587E-11
  0.714999974       2.15199074E-11
  0.716250002       2.39770270E-11
  0.717499971       2.21590090E-11
  0.718750000       1.61053792E-11
  0.720000029       6.16544446E-12
  0.721249998      -6.89404870E-12
  0.722500026      -2.18480060E-11
  0.723749995      -3.72355029E-11
  0.725000024      -5.14525852E-11
  0.726249993      -6.29992586E-11
  0.727500021      -7.08531497E-11
  0.728749990      -7.43857059E-11
  0.730000019      -7.31740085E-11
  0.731249988      -6.73735859E-11
  0.732500017      -5.75861754E-11
  0.733749986      -4.47545612E-11
  0.735000014      -3.01972787E-11
  0.736249983      -1.54193464E-11
  0.737500012      -1.85971117E-12
  0.738749981       9.26300703E-12
  0.740000010       1.70020595E-11
  0.741249979       2.07785802E-11
  0.742500007       2.04482559E-11
  0.743749976       1.62685507E-11
  0.745000005       8.83590597E-12
  0.746249974      -9.54074601E-13
  0.747500002      -1.19669006E-11
  0.748749971      -2.28739701E-11
  0.750000000      -3.25145605E-11
  0.751250029      -3.98728481E-11
  0.752499998      -4.42635650E-11
  0.753750026      -4.54451511E-11
  0.754999995      -4.33495601E-11
  0.756250024      -3.82581432E-11
  0.757499993      -3.08717739E-11
  0.758750021      -2.19234925E-11
  0.759999990      -1.21672585E-11
  0.761250019      -2.68098716E-12
  0.762499988       5.69689478E-12
  0.763750017       1.24912962E-11
  0.764999986       1.72785952E-11
  0.766250014       1.98176718E-11
  0.767499983       2.02494219E-11
  0.768750012       1.90814933E-11
  0.769999981       1.68010657E-11
  0.771250010       1.38492230E-11
  0.772499979       1.06658363E-11
  0.773750007       7.66175491E-12
  0.774999976       5.19125454E-12
  0.776250005       3.37046493E-12
  0.777499974       2.12369445E-12
  0.778750002       1.15062658E-12
  0.779999971      -7.74198685E-14
  0.781250000      -1.85944099E-12
  0.782500029      -4.46864247E-12
  0.783749998      -7.91561001E-12
  0.785000026      -1.20637268E-11
  0.786249995      -1.66988923E-11
  0.787500024      -2.11948653E-11
  0.788749993      -2.49462673E-11
  0.790000021      -2.71987276E-11
  0.791249990      -2.70047058E-11
  0.792500019      -2.36373837E-11
  0.793749988      -1.67385029E-11
  0.795000017      -6.02187310E-12
  0.796249986       8.36065158E-12
  0.797500014       2.55809592E-11
  0.798749983       4.45722244E-11
  0.800000012       6.39446621E-11
  0.801249981       8.20665896E-11
  0.802500010       9.71715625E-11
  0.803749979       1.07511215E-10
  0.805000007       1.11813725E-10
  0.806249976       1.09308347E-10
  0.807500005       9.96614458E-11
  0.808749974       8.31000269E-11
  0.810000002       6.07025610E-11
  0.811249971       3.41432577E-11
  0.812500000       5.41054831E-12
  0.813750029      -2.31065722E-11
  0.814999998      -4.90337458E-11
  0.816250026      -7.02032044E-11
  0.817499995      -8.47773171E-11
  0.818750024      -9.15659840E-11
  0.819999993      -8.99854705E-11
  0.821250021      -8.01920891E-11
  0.822499990      -6.30290334E-11
  0.823750019      -4.00340386E-11
  0.824999988      -1.34473604E-11
  0.826250017       1.42520371E-11
  0.827499986       4.04663872E-11
  0.828750014       6.26782376E-11
  0.829999983       7.90042615E-11
  0.831250012       8.80894732E-11
  0.832499981       8.93040225E-11
  0.833750010       8.31835434E-11
  0.834999979       7.06920980E-11
  0.836250007       5.32642090E-11
  0.837499976       3.30333122E-11
  0.838750005       1.25330128E-11
  0.839999974      -5.80925455E-12
  0.841250002      -2.00390624E-11
  0.842499971      -2.86864161E-11
  0.843750000      -3.08931006E-11
  0.845000029      -2.64629308E-11
  0.846249998      -1.60177323E-11
  0.847500026      -9.70160259E-13
  0.848749995       1.67153635E-11
  0.850000024       3.47050930E-11
  0.851249993       5.05726190E-11
  0.852500021       6.20297425E-11
  0.853749990       6.72913877E-11
  0.855000019       6.52407225E-11
  0.856249988       5.56117201E-11
  0.857500017       3.90245961E-11
  0.858749986       1.66901892E-11
  0.860000014      -9.46601651E-12
  0.861249983      -3.70380601E-11
  0.862500012      -6.35558967E-11
  0.863749981      -8.65246000E-11
  0.865000010      -1.03884880E-10
  0.866249979      -1.14114024E-10
  0.867500007      -1.16234168E-10
  0.868749976      -1.10249553E-10
  0.870000005      -9.68684161E-11