 -0.200000003       0.00000000    
 -0.198750004       0.00000000    
 -0.197500005       0.00000000    
 -0.196250007       0.00000000    
 -0.194999993       0.00000000    
 -0.193749994       0.00000000    
 -0.192499995       0.00000000    
 -0.191249996       0.00000000    
 -0.189999998       2.04907330E-29
 -0.188749999       2.99832674E-28
 -0.187500000       2.26774284E-27
 -0.186250001       1.17490393E-26
 -0.185000002       4.65896135E-26
 -0.183750004       1.49590929E-25
 -0.182500005       4.00762738E-25
 -0.181250006       9.07056132E-25
 -0.180000007       1.72452863E-24
 -0.178749993       2.65150409E-24
 -0.177499995       2.85479828E-24
 -0.176249996       4.03366472E-25
 -0.174999997      -7.97315128E-24
 -0.173749998      -2.62226421E-23
 -0.172499999      -5.63838332E-23
 -0.171250001      -9.30409562E-23
 -0.170000002      -1.14588951E-22
 -0.168750003      -7.32129879E-23
 -0.167500004       1.10812730E-22
 -0.166250005       5.40150202E-22
 -0.165000007       1.30234922E-21
 -0.163749993       2.38825864E-21
 -0.162499994       3.56074597E-21
 -0.161249995       4.18850860E-21
 -0.159999996       3.09508145E-21
 -0.158749998      -1.48118119E-21
 -0.157499999      -1.16769686E-20
 -0.156250000      -2.93861470E-20
 -0.155000001      -5.51137388E-20
 -0.153750002      -8.63048844E-20
 -0.152500004      -1.15380257E-19
 -0.151250005      -1.28030886E-19
 -0.150000006      -1.02682343E-19
 -0.148750007      -1.23151409E-20
 -0.147499993       1.70136796E-19
 -0.146249995       4.61984611E-19
 -0.144999996       8.56732932E-19
 -0.143749997       1.30753597E-18
 -0.142499998       1.71200289E-18
 -0.141249999       1.90434555E-18
 -0.140000001       1.66242634E-18
 -0.138750002       7.37344559E-19
 -0.137500003      -1.08906879E-18
 -0.136250004      -3.91878594E-18
 -0.135000005      -7.63245176E-18
 -0.133750007      -1.17835700E-17
 -0.132499993      -1.55219466E-17
 -0.131249994      -1.75846803E-17
 -0.129999995      -1.63948025E-17
 -0.128749996      -1.02994864E-17
 -0.127499998       2.04154689E-18
 -0.126249999       2.11411764E-17
 -0.125000000       4.61122123E-17
 -0.123750001       7.41538567E-17
 -0.122500002       1.00254469E-16
 -0.121250004       1.17287646E-16
 -0.119999997       1.16661835E-16
 -0.118749999       8.96219687E-17
 -0.117500000       2.91879811E-17
 -0.116250001      -6.74404456E-17
 -0.115000002      -1.96364551E-16
 -0.113750003      -3.44875129E-16
 -0.112499997      -4.90391313E-16
 -0.111249998      -6.01110589E-16
 -0.109999999      -6.38912770E-16
 -0.108750001      -5.64774782E-16
 -0.107500002      -3.46509003E-16
 -0.106250003       3.19248935E-17
 -0.104999997       5.60890448E-16
 -0.103749998       1.19720643E-15
 -0.102499999       1.86014174E-15
 -0.101250000       2.43342931E-15
 -0.100000001       2.77499238E-15
  -9.87500027E-02   2.73507447E-15
  -9.74999964E-02   2.18205174E-15
  -9.62499976E-02   1.03345960E-15
  -9.49999988E-02  -7.12012349E-16
  -9.37500000E-02  -2.94731806E-15
  -9.25000012E-02  -5.44124521E-15
  -9.12500024E-02  -7.84044274E-15
  -9.00000036E-02  -9.69431665E-15
  -8.87499973E-02  -1.05050475E-14
  -8.74999985E-02  -9.80105127E-15
  -8.62499997E-02  -7.22745855E-15
  -8.50000009E-02  -2.64234067E-15
  -8.37500021E-02   3.79668839E-15
  -8.25000033E-02   1.15733246E-14
  -8.12499970E-02   1.97985498E-14
  -7.99999982E-02   2.72562920E-14
  -7.87499994E-02   3.25165344E-14
  -7.75000006E-02   3.41143095E-14
  -7.62500018E-02   3.07811400E-14
  -7.50000030E-02   2.17034795E-14
  -7.37499967E-02   6.77198733E-15
  -7.24999979E-02  -1.32217405E-14
  -7.12499991E-02  -3.64857104E-14
  -7.00000003E-02  -6.02645714E-14
  -6.87500015E-02  -8.10391725E-14
  -6.75000027E-02  -9.48938058E-14
  -6.62499964E-02  -9.80311074E-14
  -6.49999976E-02  -8.73858006E-14
  -6.37499988E-02  -6.12630877E-14
  -6.25000000E-02  -1.99071072E-14
  -6.12500012E-02   3.41033727E-14
  -5.99999987E-02   9.57295766E-14
  -5.87499999E-02   1.57693045E-13
  -5.75000010E-02   2.11078876E-13
  -5.62499985E-02   2.46308372E-13
  -5.49999997E-02   2.54407958E-13
  -5.37500009E-02   2.28444027E-13
  -5.24999984E-02   1.64941615E-13
  -5.12499996E-02   6.50756101E-14
  -5.00000007E-02  -6.45840464E-14
  -4.87499982E-02  -2.11963585E-13
  -4.74999994E-02  -3.60146673E-13
  -4.62500006E-02  -4.88847732E-13
  -4.50000018E-02  -5.76632329E-13
  -4.37499993E-02  -6.03697864E-13
  -4.25000004E-02  -5.54918253E-13
  -4.12500016E-02  -4.22768428E-13
  -3.99999991E-02  -2.09697765E-13
  -3.87500003E-02   7.04686892E-14
  -3.75000015E-02   3.92456250E-13
  -3.62499990E-02   7.21017809E-13
  -3.50000001E-02   1.01400648E-12
  -3.37500013E-02   1.22687808E-12
  -3.24999988E-02   1.31822981E-12
  -3.12500000E-02   1.25579202E-12
  -2.99999993E-02   1.02213062E-12
  -2.87500005E-02   6.19261153E-13
  -2.74999999E-02   7.13946724E-14
  -2.62499992E-02  -5.74813038E-13
  -2.50000004E-02  -1.25290501E-12
  -2.37499997E-02  -1.88221986E-12
  -2.25000009E-02  -2.37612902E-12
  -2.12500002E-02  -2.65220376E-12
  -1.99999996E-02  -2.64327622E-12
  -1.87500007E-02  -2.30808211E-12
  -1.75000001E-02  -1.64007664E-12
  -1.62499994E-02  -6.73062626E-13
  -1.49999997E-02   5.17495606E-13
  -1.37499999E-02   1.81819067E-12
  -1.25000002E-02   3.08659608E-12
  -1.12500004E-02   4.16492752E-12
  -9.99999978E-03   4.89733731E-12
  -8.75000004E-03   5.14914240E-12
  -7.49999983E-03   4.82585629E-12
  -6.25000009E-03   3.88966463E-12
  -4.99999989E-03   2.37104238E-12
  -3.74999992E-03   3.73525971E-13
  -2.49999994E-03  -1.92971984E-12
  -1.24999997E-03  -4.30806823E-12
   0.00000000      -6.49384756E-12
   1.24999997E-03  -8.20949992E-12
   2.49999994E-03  -9.19897925E-12
   3.74999992E-03  -9.26017076E-12
   4.99999989E-03  -8.27455379E-12
   6.25000009E-03  -6.23039901E-12
   7.49999983E-03  -3.23604164E-12
   8.75000004E-03   4.79308704E-13
   9.99999978E-03   4.57864345E-12
   1.12500004E-02   8.64399090E-12
   1.25000002E-02   1.22153390E-11
   1.37499999E-02   1.48383666E-11
   1.49999997E-02   1.61163981E-11
   1.62499994E-02   1.57610678E-11
   1.75000001E-02   1.36357948E-11
   1.87500007E-02   9.78647805E-12
   1.99999996E-02   4.45465453E-12
   2.12500002E-02  -1.92991565E-12
   2.25000009E-02  -8.77842504E-12
   2.37499997E-02  -1.53926264E-11
   2.50000004E-02  -2.10312497E-11
   2.62499992E-02  -2.49873421E-11
   2.74999999E-02  -2.66689067E-11
   2.87500005E-02  -2.56742249E-11
   2.99999993E-02  -2.18530975E-11
   3.12500000E-02  -1.53459710E-11
   3.24999988E-02  -6.59484706E-12
   3.37500013E-02   3.67772609E-12
   3.50000001E-02   1.45218880E-11
   3.62499990E-02   2.48428448E-11
   3.75000015E-02   3.35058301E-11
   3.87500003E-02   3.94541136E-11
   3.99999991E-02   4.18282527E-11
   4.12500016E-02   4.00739442E-11
   4.25000004E-02   3.40257822E-11
   4.37499993E-02   2.39561704E-11
   4.50000018E-02   1.05813492E-11
   4.62500006E-02  -4.97929649E-12
   4.74999994E-02  -2.12899021E-11
   4.87499982E-02  -3.67248246E-11
   5.00000007E-02  -4.96249708E-11
   5.12499996E-02  -5.84690560E-11
   5.24999984E-02  -6.20429819E-11
   5.37500009E-02  -5.95889171E-11
   5.49999997E-02  -5.09171386E-11
   5.62499985E-02  -3.64660177E-11
   5.75000010E-02  -1.73004805E-11
   5.87499999E-02   4.95521809E-12
   5.99999987E-02   2.82477080E-11
   6.12500012E-02   5.02781011E-11
   6.25000000E-02   6.87233326E-11
   6.37499988E-02   8.14743620E-11
   6.49999976E-02   8.68675687E-11
   6.62499964E-02   8.38845451E-11
   6.75000027E-02   7.22978205E-11
   6.87500015E-02   5.27435491E-11
   7.00000003E-02   2.67096900E-11
   7.12499991E-02  -3.56460000E-12
   7.24999979E-02  -3.52728957E-11
   7.37499967E-02  -6.52947835E-11
   7.50000030E-02  -9.04963257E-11
   7.62500018E-02  -1.08049306E-10
   7.75000006E-02  -1.15737565E-10
   7.87499994E-02  -1.12218172E-10
   7.99999982E-02  -9.72080749E-11
   8.12499970E-02  -7.15729628E-11
   8.25000033E-02  -3.73040938E-11
   8.37500021E-02   2.62066302E-12
   8.50000009E-02   4.44836772E-11
   8.62499997E-02   8.41626352E-11
   8.74999985E-02   1.17524726E-10
   8.87499973E-02   1.40842796E-10
   9.00000036E-02   1.51192933E-10
   9.12500024E-02   1.46792092E-10
   9.25000012E-02   1.27239247E-10
   9.37500000E-02   9.36308253E-11
   9.49999988E-02   4.85328271E-11
   9.62499976E-02  -4.19442215E-12
   9.74999964E-02  -5.97089045E-11
   9.87500027E-02  -1.12612412E-10
  0.100000001      -1.57452620E-10
  0.101250000      -1.89255875E-10
  0.102499999      -2.04040729E-10
  0.103749998      -1.99260747E-10
  0.104999997      -1.74131543E-10
  0.106250003      -1.29804736E-10
  0.107500002      -6.93656035E-11
  0.108750001       2.35345359E-12
  0.109999999       7.91338592E-11
  0.111249998       1.53880839E-10
  0.112499997       2.19240875E-10
  0.113750003       2.68275374E-10
  0.115000002       2.95130226E-10
  0.116250001       2.95641761E-10
  0.117500000       2.67819378E-10
  0.118749999       2.12159734E-10
  0.119999997       1.31752706E-10
  0.121250004       3.21641012E-11
  0.122500002      -7.89072072E-11
  0.123750001      -1.92178190E-10
  0.125000000      -2.97499636E-10
  0.126249999      -3.84690668E-10
  0.127499998      -4.44425913E-10
  0.128749996      -4.69103256E-10
  0.129999995      -4.53620974E-10
  0.131249994      -3.95993460E-10
  0.132499993      -2.97747021E-10
  0.133750007      -1.64050634E-10
  0.135000005      -3.55299579E-12
  0.136250004       1.72079420E-10
  0.137500003       3.48907042E-10
  0.138750002       5.11706066E-10
  0.140000001       6.45141052E-10
  0.141249999       7.35040806E-10
  0.142499998       7.69686925E-10
  0.143749997       7.41009365E-10
  0.144999996       6.45589138E-10
  0.146249995       4.85366691E-10
  0.147499993       2.67974226E-10
  0.148750007       6.62663847E-12
  0.150000006      -2.80462736E-10
  0.151250005      -5.71139802E-10
  0.152500004      -8.40803316E-10
  0.153750002      -1.06425568E-09
  0.155000001      -1.21779087E-09
  0.156250000      -1.28137267E-09
  0.157499999      -1.24072330E-09
  0.158749998      -1.08913867E-09
  0.159999996      -8.28837388E-10
  0.161249995      -4.71681694E-10
  0.162499994      -3.91351049E-11
  0.163749993       4.38626385E-10
  0.165000007       9.24460730E-10
  0.166250005       1.37680667E-09
  0.167500004       1.75289161E-09
  0.168750003       2.01238337E-09
  0.170000002       2.12121498E-09
  0.171250001       2.05523931E-09
  0.172499999       1.80338611E-09
  0.173749998       1.36995970E-09
  0.174999997       7.75792597E-10
  0.176249996       5.80181181E-11
  0.177499995      -7.31654182E-10
  0.178749993      -1.53016355E-09
  0.180000007      -2.26767582E-09
  0.181250006      -2.87323143E-09
  0.182500005      -3.28104699E-09
  0.183750004      -3.43695583E-09
  0.185000002      -3.30440320E-09
  0.186250001      -2.86939095E-09
  0.187500000      -2.14382023E-09
  0.188749999      -1.16676246E-09
  0.189999998      -3.35018233E-12
  0.191249996       1.25882937E-09
  0.192499995       2.51573318E-09
  0.193749994       3.65490327E-09
  0.194999993       4.56499061E-09
  0.196250007       5.14598941E-09
  0.197500005       5.31930988E-09
  0.198750004       5.03670838E-09
  0.200000003       4.28716707E-09
  0.201250002       3.10090598E-09
  0.202500001       1.54991231E-09
  0.203749999      -2.55336724E-10
  0.204999998      -2.17295626E-09
  0.206249997      -4.04017619E-09
  0.207499996      -5.68659431E-09
  0.208749995      -6.94912261E-09
  0.209999993      -7.68737785E-09
  0.211250007      -7.79809639E-09
  0.212500006      -7.22718196E-09
  0.213750005      -5.97809047E-09
  0.215000004      -4.11551770E-09
  0.216250002      -1.76372272E-09
  0.217500001       9.00717889E-10
  0.218750000       3.66142650E-09
  0.219999999       6.27919938E-09
  0.221249998       8.51215365E-09
  0.222499996       1.01373896E-08
  0.223749995       1.09722711E-08
  0.224999994       1.08933298E-08
  0.226249993       9.85090942E-09
  0.227500007       7.87797916E-09
  0.228750005       5.09194686E-09
  0.230000004       1.68892555E-09
  0.231250003      -2.06942286E-09
  0.232500002      -5.87568083E-09
  0.233750001      -9.40162703E-09
  0.234999999      -1.23263346E-08
  0.236249998      -1.43650132E-08
  0.237499997      -1.52959920E-08
  0.238749996      -1.49833355E-08
  0.239999995      -1.33927713E-08
  0.241249993      -1.05992566E-08
  0.242500007      -6.78508716E-09
  0.243750006      -2.22832530E-09
  0.245000005       2.71777223E-09
  0.246250004       7.65285790E-09
  0.247500002       1.21628378E-08
  0.248750001       1.58556901E-08
  0.250000000       1.83965785E-08
  0.251249999       1.95390530E-08
  0.252499998       1.91494784E-08
  0.253749996       1.72221881E-08
  0.254999995       1.38837644E-08
  0.256249994       9.38576772E-09
  0.257499993       4.08619760E-09
  0.258749992      -1.57891022E-09
  0.259999990      -7.13144477E-09
  0.261249989      -1.20917072E-08
  0.262499988      -1.60198841E-08
  0.263749987      -1.85547879E-08
  0.264999986      -1.94464000E-08
  0.266250014      -1.85790530E-08
  0.267500013      -1.59831952E-08
  0.268750012      -1.18342944E-08
  0.270000011      -6.43904174E-09
  0.271250010      -2.09646786E-10
  0.272500008       6.37135722E-09
  0.273750007       1.27930395E-08
  0.275000006       1.85606428E-08
  0.276250005       2.32391333E-08
  0.277500004       2.64918931E-08
  0.278750002       2.81107155E-08
  0.280000001       2.80346164E-08
  0.281250000       2.63558917E-08
  0.282499999       2.33125075E-08
  0.283749998       1.92678904E-08
  0.284999996       1.46796628E-08
  0.286249995       1.00605142E-08
  0.287499994       5.93427218E-09
  0.288749993       2.79182366E-09
  0.289999992       1.05029252E-09
  0.291249990       1.01942943E-09
  0.292499989       2.87782687E-09
  0.293749988       6.66165390E-09
  0.294999987       1.22660451E-08
  0.296249986       1.94593692E-08
  0.297500014       2.79085661E-08
  0.298750013       3.72127076E-08
  0.300000012       4.69430255E-08
  0.301250011       5.66833762E-08
  0.302500010       6.60702071E-08
  0.303750008       7.48252234E-08
  0.305000007       8.27813409E-08
  0.306250006       8.98966874E-08
  0.307500005       9.62584181E-08
  0.308750004       1.02073670E-07
  0.310000002       1.07651864E-07
  0.311250001       1.13376835E-07
  0.312500000       1.19676258E-07
  0.313749999       1.26986308E-07
  0.314999998       1.35718295E-07
  0.316249996       1.46229908E-07
  0.317499995       1.58802678E-07
  0.318749994       1.73628109E-07
  0.319999993       1.90803291E-07
  0.321249992       2.10335983E-07
  0.322499990       2.32156466E-07
  0.323749989       2.56139941E-07
  0.324999988       2.82128042E-07
  0.326249987       3.09959773E-07
  0.327499986       3.39492345E-07
  0.328750014       3.70626168E-07
  0.330000013       4.03321962E-07
  0.331250012       4.37609970E-07
  0.332500011       4.73595833E-07
  0.333750010       5.11454743E-07
  0.335000008       5.51424819E-07
  0.336250007       5.93791128E-07
  0.337500006       6.38867277E-07
  0.338750005       6.86978694E-07
  0.340000004       7.38442623E-07
  0.341250002       7.93558740E-07
  0.342500001       8.52590176E-07
  0.343750000       9.15761575E-07
  0.344999999       9.83256541E-07
  0.346249998       1.05521769E-06
  0.347499996       1.13175383E-06
  0.348749995       1.21294329E-06
  0.349999994       1.29884734E-06
  0.351249993       1.38952237E-06
  0.352499992       1.48501692E-06
  0.353749990       1.58538637E-06
  0.354999989       1.69069153E-06
  0.356249988       1.80100437E-06
  0.357499987       1.91640333E-06
  0.358749986       2.03696845E-06
  0.360000014       2.16278158E-06
  0.361250013       2.29392481E-06
  0.362500012       2.43046384E-06
  0.363750011       2.57246666E-06
  0.365000010       2.72000079E-06
  0.366250008       2.87310490E-06
  0.367500007       3.03183629E-06
  0.368750006       3.19624155E-06
  0.370000005       3.36634935E-06
  0.371250004       3.54219765E-06
  0.372500002       3.72381464E-06
  0.373750001       3.91122467E-06
  0.375000000       4.10440225E-06
  0.376249999       4.30331420E-06
  0.377499998       4.50789321E-06
  0.378749996       4.71799922E-06
  0.379999995       4.93341577E-06
  0.381249994       5.15387183E-06
  0.382499993       5.37900314E-06
  0.383749992       5.60839044E-06
  0.384999990       5.84154759E-06
  0.386249989       6.07792799E-06
  0.387499988       6.31692774E-06
  0.388749987       6.55795475E-06
  0.389999986       6.80041921E-06
  0.391250014       7.04375407E-06
  0.392500013       7.28746727E-06
  0.393750012       7.53107452E-06
  0.395000011       7.77420064E-06
  0.396250010       8.01651095E-06
  0.397500008       8.25774623E-06
  0.398750007       8.49761909E-06
  0.400000006       8.73584759E-06
  0.401250005       8.97217251E-06
  0.402500004       9.20621551E-06
  0.403750002       9.43747909E-06
  0.405000001       9.66534117E-06
  0.406250000       9.88915872E-06
  0.407499999       1.01080168E-05
  0.408749998       1.03209495E-05
  0.409999996       1.05269437E-05
  0.411249995       1.07248725E-05
  0.412499994       1.09135372E-05
  0.413749993       1.10919273E-05
  0.414999992       1.12590933E-05
  0.416249990       1.14142840E-05
  0.417499989       1.15567873E-05
  0.418749988       1.16862329E-05
  0.419999987       1.18023863E-05
  0.421249986       1.19052411E-05
  0.422500014       1.19948127E-05
  0.423750013       1.20714649E-05
  0.425000012       1.21354642E-05
  0.426250011       1.21870562E-05
  0.427500010       1.22264482E-05
  0.428750008       1.22537349E-05
  0.430000007       1.22687752E-05
  0.431250006       1.22712509E-05
  0.432500005       1.22606498E-05
  0.433750004       1.22363235E-05
  0.435000002       1.21973735E-05
  0.436250001       1.21429821E-05
  0.437500000       1.20721088E-05
  0.438749999       1.19841707E-05
  0.439999998       1.18782546E-05
  0.441249996       1.17542540E-05
  0.442499995       1.16121291E-05
  0.443749994       1.14522145E-05
  0.444999993       1.12752059E-05
  0.446249992       1.10821729E-05
  0.447499990       1.08745407E-05
  0.448749989       1.06539364E-05
  0.449999988       1.04217488E-05
  0.451249987       1.01799023E-05
  0.452499986       9.93001504E-06
  0.453750014       9.67312826E-06
  0.455000013       9.41045437E-06
  0.456250012       9.14262364E-06
  0.457500011       8.86969246E-06
  0.458750010       8.59166812E-06
  0.460000008       8.30789668E-06
  0.461250007       8.01784154E-06
  0.462500006       7.72055773E-06
  0.463750005       7.41511894E-06
  0.465000004       7.10068070E-06
  0.466250002       6.77719981E-06
  0.467500001       6.44401916E-06
  0.468750000       6.10167672E-06
  0.469999999       5.75061904E-06
  0.471249998       5.39240682E-06
  0.472499996       5.02842568E-06
  0.473749995       4.66073470E-06
  0.474999994       4.29160900E-06
  0.476249993       3.92289803E-06
  0.477499992       3.55721909E-06
  0.478749990       3.19640026E-06
  0.479999989       2.84185398E-06
  0.481249988       2.49518644E-06
  0.482499987       2.15653995E-06
  0.483749986       1.82604276E-06
  0.485000014       1.50288770E-06
  0.486250013       1.18707180E-06
  0.487500012       8.77107880E-07
  0.488750011       5.72007252E-07
  0.490000010       2.69513237E-07
  0.491250008      -3.16301083E-08
  0.492500007      -3.32214540E-07
  0.493750006      -6.33231707E-07
  0.495000005      -9.35081175E-07
  0.496250004      -1.23815505E-06
  0.497500002      -1.54189001E-06
  0.498750001      -1.84505711E-06
  0.500000000      -2.14722058E-06
  0.501250029      -2.44632224E-06
  0.502499998      -2.74069725E-06
  0.503750026      -3.02847366E-06
  0.504999995      -3.30825128E-06
  0.506250024      -3.57922181E-06
  0.507499993      -3.83995211E-06
  0.508750021      -4.09053200E-06
  0.509999990      -4.32983188E-06
  0.511250019      -4.55877398E-06
  0.512499988      -4.77743697E-06
  0.513750017      -4.98693225E-06
  0.514999986      -5.18728984E-06
  0.516250014      -5.38007544E-06
  0.517499983      -5.56638815E-06
  0.518750012      -5.74714841E-06
  0.519999981      -5.92289371E-06
  0.521250010      -6.09463950E-06
  0.522499979      -6.26183328E-06
  0.523750007      -6.42493387E-06
  0.524999976      -6.58392446E-06
  0.526250005      -6.73811337E-06
  0.527499974      -6.88704631E-06
  0.528750002      -7.03020442E-06
  0.529999971      -7.16748536E-06
  0.531250000      -7.29741305E-06
  0.532500029      -7.41968779E-06
  0.533749998      -7.53309814E-06
  0.535000026      -7.63813387E-06
  0.536249995      -7.73417105E-06
  0.537500024      -7.82126790E-06
  0.538749993      -7.89880687E-06
  0.540000021      -7.96771928E-06
  0.541249990      -8.02738577E-06
  0.542500019      -8.07826018E-06
  0.543749988      -8.12073631E-06
  0.545000017      -8.15484418E-06
  0.546249986      -8.18084027E-06
  0.547500014      -8.19811612E-06
  0.548749983      -8.20802325E-06
  0.550000012      -8.21050526E-06
  0.551249981      -8.20528112E-06
  0.552500010      -8.19295838E-06
  0.553749979      -8.17346154E-06
  0.555000007      -8.14693340E-06
  0.556249976      -8.11268637E-06
  0.557500005      -8.07147899E-06
  0.558749974      -8.02236355E-06
  0.560000002      -7.96751192E-06
  0.561249971      -7.90565082E-06
  0.562500000      -7.83591258E-06
  0.563750029      -7.75952685E-06
  0.564999998      -7.67485744E-06
  0.566250026      -7.58270744E-06
  0.567499995      -7.48264165E-06
  0.568750024      -7.37459141E-06
  0.569999993      -7.25790733E-06
  0.571250021      -7.13313284E-06
  0.572499990      -7.00077862E-06
  0.573750019      -6.86044177E-06
  0.574999988      -6.71242969E-06
  0.576250017      -6.55872600E-06
  0.577499986      -6.39917971E-06
  0.578750014      -6.23432425E-06
  0.579999983      -6.06534104E-06
  0.581250012      -5.89241290E-06
  0.582499981      -5.71622013E-06
  0.583750010      -5.53691871E-06
  0.584999979      -5.35523759E-06
  0.586250007      -5.17032004E-06
  0.587499976      -4.98322424E-06
  0.588750005      -4.79201344E-06
  0.589999974      -4.59654302E-06
  0.591250002      -4.39614814E-06
  0.592499971      -4.19148728E-06
  0.593750000      -3.98105021E-06
  0.595000029      -3.76356684E-06
  0.596249998      -3.53856535E-06
  0.597500026      -3.30714693E-06
  0.598749995      -3.06882816E-06
  0.600000024      -2.82259180E-06
  0.601249993      -2.56991143E-06
  0.602500021      -2.31106378E-06
  0.603749990      -2.04682692E-06
  0.605000019      -1.77637480E-06
  0.606249988      -1.50225969E-06
  0.607500017      -1.22399047E-06
  0.608749986      -9.44848296E-07
  0.610000014      -6.62518062E-07
  0.611249983      -3.79834745E-07
  0.612500012      -9.63717000E-08
  0.613749981       1.86410759E-07
  0.615000010       4.70923993E-07
  0.616249979       7.54423070E-07
  0.617500007       1.03864033E-06
  0.618749976       1.32287414E-06
  0.620000005       1.60841500E-06
  0.621249974       1.89491141E-06
  0.622500002       2.18299897E-06
  0.623749971       2.47356820E-06
  0.625000000       2.76596302E-06
  0.626250029       3.06137940E-06
  0.627499998       3.35948766E-06
  0.628750026       3.66054087E-06
  0.629999995       3.96559517E-06
  0.631250024       4.27373061E-06
  0.632499993       4.58452405E-06
  0.633750021       4.89731519E-06
  0.634999990       5.21146649E-06
  0.636250019       5.52593747E-06
  0.637499988       5.83900692E-06
  0.638750017       6.15092267E-06
  0.639999986       6.45970704E-06
  0.641250014       6.76407763E-06
  0.642499983       7.06249102E-06
  0.643750012       7.35463982E-06
  0.644999981       7.63892785E-06
  0.646250010       7.91508410E-06
  0.647499979       8.18307126E-06
  0.648750007       8.44248552E-06
  0.649999976       8.69382802E-06
  0.651250005       8.93760534E-06
  0.652499974       9.17535817E-06
  0.653750002       9.40750942E-06
  0.654999971       9.63631373E-06
  0.656250000       9.86116356E-06
  0.657500029       1.00845973E-05
  0.658749998       1.03069688E-05
  0.660000026       1.05276058E-05
  0.661249995       1.07484257E-05
  0.662500024       1.09689490E-05
  0.663749993       1.11888612E-05
  0.665000021       1.14075574E-05
  0.666249990       1.16232513E-05
  0.667500019       1.18351054E-05
  0.668749988       1.20403611E-05
  0.670000017       1.22390538E-05
  0.671249986       1.24288645E-05
  0.672500014       1.26094474E-05
  0.673749983       1.27794592E-05
  0.675000012       1.29388045E-05
  0.676249981       1.30872086E-05
  0.677500010       1.32249706E-05
  0.678749979       1.33520471E-05
  0.680000007       1.34705169E-05
  0.681249976       1.35810460E-05
  0.682500005       1.36834742E-05
  0.683749974       1.37814341E-05
  0.685000002       1.38727373E-05
  0.686249971       1.39574731E-05
  0.687500000       1.40361726E-05
  0.688750029       1.41066803E-05
  0.689999998       1.41671635E-05
  0.691250026       1.42155141E-05
  0.692499995       1.42491772E-05
  0.693750024       1.42651324E-05
  0.694999993       1.42581976E-05
  0.696250021       1.42245290E-05
  0.697499990       1.41609744E-05
  0.698750019       1.40633565E-05
  0.699999988       1.39298591E-05
  0.701250017       1.37552524E-05
  0.702499986       1.35375631E-05
  0.703750014       1.32748410E-05
  0.704999983       1.29626087E-05
  0.706250012       1.25994056E-05
  0.707499981       1.21826024E-05
  0.708750010       1.17106974E-05
  0.709999979       1.11812114E-05
  0.711250007       1.05899189E-05
  0.712499976       9.93523463E-06
  0.713750005       9.21179981E-06
  0.714999974       8.41684505E-06
  0.716250002       7.54256916E-06
  0.717499971       6.58594354E-06
  0.718750000       5.54076360E-06
  0.720000029       4.40117810E-06
  0.721249998       3.16201340E-06
  0.722500026       1.81657458E-06
  0.723749995       3.58545691E-07
  0.725000024      -1.21724167E-06
  0.726249993      -2.91551100E-06
  0.727500021      -4.74131639E-06
  0.728749990      -6.69832934E-06
  0.730000019      -8.79028266E-06
  0.731249988      -1.10197898E-05
  0.732500017      -1.33916046E-05
  0.733749986      -1.59065930E-05
  0.735000014      -1.85636127E-05
  0.736249983      -2.13668154E-05
  0.737500012      -2.43137602E-05
  0.738749981      -2.74061276E-05
  0.740000010      -3.06435868E-05
  0.741249979      -3.40239276E-05
  0.742500007      -3.75470081E-05
  0.743749976      -4.12109403E-05
  0.745000005      -4.50150073E-05
  0.746249974      -4.89593331E-05
  0.747500002      -5.30396937E-05
  0.748749971      -5.72547251E-05
  0.750000000      -6.16020770E-05
  0.751250029      -6.60784790E-05
  0.752499998      -7.06808059E-05
  0.753750026      -7.54019711E-05
  0.754999995      -8.02349095E-05
  0.756250024      -8.51758668E-05
  0.757499993      -9.02157117E-05
  0.758750021      -9.53453418E-05
  0.759999990      -1.00554222E-04
  0.761250019      -1.05834595E-04
  0.762499988      -1.11169713E-04
  0.763750017      -1.16548166E-04
  0.764999986      -1.21955192E-04
  0.766250014      -1.27376639E-04
  0.767499983      -1.32794215E-04
  0.768750012      -1.38193151E-04
  0.769999981      -1.43554455E-04
  0.771250010      -1.48861669E-04
  0.772499979      -1.54099136E-04
  0.773750007      -1.59248273E-04
  0.774999976      -1.64293582E-04
  0.776250005      -1.69215273E-04
  0.777499974      -1.73999229E-04
  0.778750002      -1.78628077E-04
  0.779999971      -1.83084281E-04
  0.781250000      -1.87350961E-04
  0.782500029      -1.91413099E-04
  0.783749998      -1.95250788E-04
  0.785000026      -1.98847789E-04
  0.786249995      -2.02185096E-04
  0.787500024      -2.05245349E-04
  0.788749993      -2.08007987E-04
  0.790000021      -2.10452286E-04
  0.791249990      -2.12560146E-04
  0.792500019      -2.14309664E-04
  0.793749988      -2.15683758E-04
  0.795000017      -2.16663248E-04
  0.796249986      -2.17228342E-04
  0.797500014      -2.17364839E-04
  0.798749983      -2.17055582E-04
  0.800000012      -2.16287750E-04
  0.801249981      -2.15050008E-04
  0.802500010      -2.13333318E-04
  0.803749979      -2.11128907E-04
  0.805000007      -2.08430385E-04
  0.806249976      -2.05233999E-04
  0.807500005      -2.01535528E-04
  0.808749974      -1.97333342E-04
  0.810000002      -1.92626903E-04
  0.811249971      -1.87415586E-04
  0.812500000      -1.81700394E-04
  0.813750029      -1.75482623E-04
  0.814999998      -1.68764091E-04
  0.816250026      -1.61547927E-04
  0.817499995      -1.53838104E-04
  0.818750024      -1.45639613E-04
  0.819999993      -1.36959279E-04
  0.821250021      -1.27804975E-04
  0.822499990      -1.18187250E-04
  0.823750019      -1.08118955E-04
  0.824999988      -9.76143783E-05
  0.826250017      -8.66917180E-05
  0.827499986      -7.53703862E-05
  0.828750014      -6.36722616E-05
  0.829999983      -5.16227883E-05
  0.831250012      -3.92464317E-05
  0.832499981      -2.65722483E-05
  0.833750010      -1.36288709E-05
  0.834999979      -4.47656248E-07
  0.836250007       1.29414784E-05
  0.837499976       2.65072958E-05
  0.838750005       4.02156875E-05
  0.839999974       5.40387518E-05
  0.841250002       6.79420918E-05
  0.842499971       8.18931367E-05
  0.843750000       9.58627061E-05
  0.845000029       1.09816567E-04
  0.846249998       1.23720965E-04
  0.847500026       1.37543277E-04
  0.848749995       1.51248634E-04
  0.850000024       1.64804995E-04
  0.851249993       1.78174378E-04
  0.852500021       1.91320563E-04
  0.853749990       2.04209951E-04
  0.855000019       2.16806788E-04
  0.856249988       2.29071695E-04
  0.857500017       2.40971116E-04
  0.858749986       2.52469297E-04
  0.860000014       2.63533177E-04
  0.861249983       2.74128775E-04
  0.862500012       2.84226029E-04
  0.863749981       2.93798890E-04
  0.865000010       3.02813889E-04
  0.866249979       3.11250886E-04
  0.867500007       3.19079409E-04
  0.868749976       3.26286128E-04
  0.870000005       3.32843803E-04