 -0.200000003       0.00000000    
 -0.198750004       0.00000000    
 -0.197500005       0.00000000    
 -0.196250007       0.00000000    
 -0.194999993       0.00000000    
 -0.193749994       0.00000000    
 -0.192499995       0.00000000    
 -0.191249996       0.00000000    
 -0.189999998       0.00000000    
 -0.188749999      -8.15712652E-40
 -0.187500000      -1.61327541E-38
 -0.186250001      -1.66257931E-37
 -0.185000002      -1.19019323E-36
 -0.183750004      -6.64992020E-36
 -0.182500005      -3.08701376E-35
 -0.181250006      -1.23699256E-34
 -0.180000007      -4.38693895E-34
 -0.178749993      -1.40065286E-33
 -0.177499995      -4.07427811E-33
 -0.176249996      -1.08887570E-32
 -0.174999997      -2.68956575E-32
 -0.173749998      -6.16458155E-32
 -0.172499999      -1.31431471E-31
 -0.171250001      -2.60911974E-31
 -0.170000002      -4.81998105E-31
 -0.168750003      -8.26618348E-31
 -0.167500004      -1.30952591E-30
 -0.166250005      -1.89924152E-30
 -0.165000007      -2.48157296E-30
 -0.163749993      -2.83217760E-30
 -0.162499994      -2.63073905E-30
 -0.161249995      -1.56222024E-30
 -0.159999996       4.54829938E-31
 -0.158749998       2.91888958E-30
 -0.157499999       4.38906645E-30
 -0.156250000       2.41108430E-30
 -0.155000001      -5.77881336E-30
 -0.153750002      -2.11440912E-29
 -0.152500004      -3.88321433E-29
 -0.151250005      -4.23865403E-29
 -0.150000006       2.31711829E-30
 -0.148750007       1.49789466E-28
 -0.147499993       4.68157410E-28
 -0.146249995       1.01485174E-27
 -0.144999996       1.78713568E-27
 -0.143749997       2.64494026E-27
 -0.142499998       3.21541303E-27
 -0.141249999       2.80831035E-27
 -0.140000001       3.96870269E-28
 -0.138750002      -5.25659043E-27
 -0.137500003      -1.52398035E-26
 -0.136250004      -2.98232625E-26
 -0.135000005      -4.74846348E-26
 -0.133750007      -6.37557630E-26
 -0.132499993      -7.02176986E-26
 -0.131249994      -5.41965931E-26
 -0.129999995       9.20440379E-29
 -0.128749996       1.08144646E-25
 -0.127499998       2.78918561E-25
 -0.126249999       5.05730542E-25
 -0.125000000       7.55369520E-25
 -0.123750001       9.57965665E-25
 -0.122500002       1.00181667E-24
 -0.121250004       7.38754334E-25
 -0.119999997       6.06719971E-27
 -0.118749999      -1.33031570E-24
 -0.117500000      -3.31045716E-24
 -0.116250001      -5.79855443E-24
 -0.115000002      -8.39942410E-24
 -0.113750003      -1.03984765E-23
 -0.112499997      -1.07592991E-23
 -0.111249998      -8.21700869E-24
 -0.109999999      -1.50042074E-24
 -0.108750001       1.03019633E-23
 -0.107500002       2.72503196E-23
 -0.106250003       4.80014698E-23
 -0.104999997       6.93169427E-23
 -0.103749998       8.58034793E-23
 -0.102499999       9.00908562E-23
 -0.101250000       7.36450564E-23
 -0.100000001       2.83505124E-23
  -9.87500027E-02  -5.11391104E-23
  -9.74999964E-02  -1.64485577E-22
  -9.62499976E-02  -3.02643369E-22
  -9.49999988E-02  -4.45447867E-22
  -9.37500000E-02  -5.60737377E-22
  -9.25000012E-02  -6.06000474E-22
  -9.12500024E-02  -5.33392656E-22
  -9.00000036E-02  -2.98536950E-22
  -8.87499973E-02   1.27206244E-22
  -8.74999985E-02   7.42303420E-22
  -8.62499997E-02   1.50086692E-21
  -8.50000009E-02   2.30218420E-21
  -8.37500021E-02   2.98808030E-21
  -8.25000033E-02   3.35222294E-21
  -8.12499970E-02   3.16450080E-21
  -7.99999982E-02   2.21148857E-21
  -7.87499994E-02   3.50790920E-22
  -7.75000006E-02  -2.42699638E-21
  -7.62500018E-02  -5.93922829E-21
  -7.50000030E-02  -9.76920498E-21
  -7.37499967E-02  -1.32572665E-20
  -7.24999979E-02  -1.55401565E-20
  -7.12499991E-02  -1.56492749E-20
  -7.00000003E-02  -1.26698802E-20
  -6.87500015E-02  -5.95110326E-21
  -6.75000027E-02   4.65792673E-21
  -6.62499964E-02   1.85851457E-20
  -6.49999976E-02   3.43766989E-20
  -6.37499988E-02   4.96581337E-20
  -6.25000000E-02   6.12668381E-20
  -6.12500012E-02   6.55898520E-20
  -5.99999987E-02   5.91114833E-20
  -5.87499999E-02   3.91341603E-20
  -5.75000010E-02   4.58904335E-21
  -5.62499985E-02  -4.31929870E-20
  -5.49999997E-02  -9.99142608E-20
  -5.37500009E-02  -1.58124880E-19
  -5.24999984E-02  -2.07579424E-19
  -5.12499996E-02  -2.36241956E-19
  -5.00000007E-02  -2.31953619E-19
  -4.87499982E-02  -1.84654410E-19
  -4.74999994E-02  -8.89111431E-20
  -4.62500006E-02   5.36293891E-20
  -4.50000018E-02   2.32343531E-19
  -4.37499993E-02   4.26809686E-19
  -4.25000004E-02   6.07533813E-19
  -4.12500016E-02   7.38540610E-19
  -3.99999991E-02   7.81896455E-19
  -3.87500003E-02   7.03892909E-19
  -3.75000015E-02   4.82240455E-19
  -3.62499990E-02   1.13258280E-19
  -3.50000001E-02  -3.82229382E-19
  -3.37500013E-02  -9.55694184E-19
  -3.24999988E-02  -1.53169696E-18
  -3.12500000E-02  -2.01359584E-18
  -2.99999993E-02  -2.29445943E-18
  -2.87500005E-02  -2.27263055E-18
  -2.74999999E-02  -1.87042866E-18
  -2.62499992E-02  -1.05355048E-18
  -2.50000004E-02   1.51999297E-19
  -2.37499997E-02   1.64896087E-18
  -2.25000009E-02   3.26719033E-18
  -2.12500002E-02   4.77388059E-18
  -1.99999996E-02   5.89674022E-18
  -1.87500007E-02   6.35929300E-18
  -1.75000001E-02   5.92522418E-18
  -1.62499994E-02   4.44647051E-18
  -1.49999997E-02   1.90793799E-18
  -1.37499999E-02  -1.53929399E-18
  -1.25000002E-02  -5.56429137E-18
  -1.12500004E-02  -9.66863625E-18
  -9.99999978E-03  -1.32284949E-17
  -8.75000004E-03  -1.55659427E-17
  -7.49999983E-03  -1.60442516E-17
  -6.25000009E-03  -1.41768947E-17
  -4.99999989E-03  -9.73568916E-18
  -3.74999992E-03  -2.84076632E-18
  -2.49999994E-03   5.98552565E-18
  -1.24999997E-03   1.58164212E-17
   0.00000000       2.53807351E-17
   1.24999997E-03   3.31877865E-17
   2.49999994E-03   3.77103303E-17
   3.74999992E-03   3.76082860E-17
   4.99999989E-03   3.19665734E-17
   6.25000009E-03   2.05134108E-17
   7.49999983E-03   3.78241777E-18
   8.75000004E-03  -1.68159515E-17
   9.99999978E-03  -3.90404004E-17
   1.12500004E-02  -5.99957606E-17
   1.25000002E-02  -7.64371862E-17
   1.37499999E-02  -8.51782221E-17
   1.49999997E-02  -8.35601841E-17
   1.62499994E-02  -6.99245286E-17
   1.75000001E-02  -4.40201401E-17
   1.87500007E-02  -7.27648120E-18
   1.99999996E-02   3.71176356E-17
   2.12500002E-02   8.43709402E-17
   2.25000009E-02   1.28495983E-16
   2.37499997E-02   1.62945118E-16
   2.50000004E-02   1.81421196E-16
   2.62499992E-02   1.78775872E-16
   2.74999999E-02   1.51884178E-16
   2.87500005E-02   1.00372312E-16
   2.99999993E-02   2.70793670E-17
   3.12500000E-02  -6.18455217E-17
   3.24999988E-02  -1.57272313E-16
   3.37500013E-02  -2.47857643E-16
   3.50000001E-02  -3.21206143E-16
   3.62499990E-02  -3.65323219E-16
   3.75000015E-02  -3.70206708E-16
   3.87500003E-02  -3.29389381E-16
   3.99999991E-02  -2.41229028E-16
   4.12500016E-02  -1.09752924E-16
   4.25000004E-02   5.51012932E-17
   4.37499993E-02   2.37946801E-16
   4.50000018E-02   4.19132760E-16
   4.62500006E-02   5.76588033E-16
   4.74999994E-02   6.88171442E-16
   4.87499982E-02   7.34300803E-16
   5.00000007E-02   7.00577668E-16
   5.12499996E-02   5.80098878E-16
   5.24999984E-02   3.75154042E-16
   5.37500009E-02   9.80518458E-17
   5.49999997E-02  -2.29105392E-16
   5.62499985E-02  -5.75777369E-16
   5.75000010E-02  -9.05431104E-16
   5.87499999E-02  -1.17891189E-15
   5.99999987E-02  -1.35846244E-15
   6.12500012E-02  -1.41201790E-15
   6.25000000E-02  -1.31734630E-15
   6.37499988E-02  -1.06558026E-15
   6.49999976E-02  -6.63710930E-16
   6.62499964E-02  -1.35682886E-16
   6.75000027E-02   4.78163598E-16
   6.87500015E-02   1.12341260E-15
   7.00000003E-02   1.73560323E-15
   7.12499991E-02   2.24574438E-15
   7.24999979E-02   2.58692036E-15
   7.37499967E-02   2.70144768E-15
   7.50000030E-02   2.54793355E-15
   7.62500018E-02   2.10752131E-15
   7.75000006E-02   1.38861014E-15
   7.87499994E-02   4.29394935E-16
   7.99999982E-02  -7.02292434E-16
   8.12499970E-02  -1.91216078E-15
   8.25000033E-02  -3.08572303E-15
   8.37500021E-02  -4.09741431E-15
   8.50000009E-02  -4.82201754E-15
   8.62499997E-02  -5.14754712E-15
   8.74999985E-02  -4.98846925E-15
   8.87499973E-02  -4.29795317E-15
   9.00000036E-02  -3.07775541E-15
   9.12500024E-02  -1.38439383E-15
   9.25000012E-02   6.69540528E-16
   9.37500000E-02   2.91973930E-15
   9.49999988E-02   5.16051223E-15
   9.62499976E-02   7.16082755E-15
   9.74999964E-02   8.68512771E-15
   9.87500027E-02   9.51735198E-15
  0.100000001       9.48601600E-15
  0.101250000       8.48780546E-15
  0.102499999       6.50694988E-15
  0.103749998       3.62773623E-15
  0.104999997       3.79233260E-17
  0.106250003      -3.97846208E-15
  0.107500002      -8.05950071E-15
  0.108750001      -1.17943070E-14
  0.109999999      -1.47606469E-14
  0.111249998      -1.65681898E-14
  0.112499997      -1.69033387E-14
  0.113750003      -1.55709372E-14
  0.115000002      -1.25279451E-14
  0.116250001      -7.90449283E-15
  0.117500000      -2.00863064E-15
  0.118749999       4.68751336E-15
  0.119999997       1.15806404E-14
  0.121250004       1.79866548E-14
  0.122500002       2.32047929E-14
  0.123750001       2.65899058E-14
  0.125000000       2.76258186E-14
  0.126249999       2.59918819E-14
  0.127499998       2.16148104E-14
  0.128749996       1.46988151E-14
  0.129999995       5.72875614E-15
  0.131249994      -4.55642993E-15
  0.132499993      -1.52197557E-14
  0.133750007      -2.52081105E-14
  0.135000005      -3.34533935E-14
  0.136250004      -3.89834954E-14
  0.137500003      -4.10318853E-14
  0.138750002      -3.91338742E-14
  0.140000001      -3.31981248E-14
  0.141249999      -2.35437890E-14
  0.142499998      -1.08967282E-14
  0.143749997       3.65777414E-15
  0.144999996       1.87638110E-14
  0.146249995       3.29185226E-14
  0.147499993       4.46197712E-14
  0.148750007       5.25235474E-14
  0.150000006       5.55948923E-14
  0.151250005       5.32357395E-14
  0.152500004       4.53745352E-14
  0.153750002       3.25056618E-14
  0.155000001       1.56713852E-14
  0.156250000      -3.61517812E-15
  0.157499999      -2.35013814E-14
  0.158749998      -4.19697609E-14
  0.159999996      -5.70400525E-14
  0.161249995      -6.69785747E-14
  0.162499994      -7.04931651E-14
  0.163749993      -6.68921976E-14
  0.165000007      -5.61889199E-14
  0.166250005      -3.91372624E-14
  0.167500004      -1.71917483E-14
  0.168750003       7.60812617E-15
  0.170000002       3.28206598E-14
  0.171250001       5.58360087E-14
  0.172499999       7.41394522E-14
  0.173749998       8.55777377E-14
  0.174999997       8.86008389E-14
  0.176249996       8.24527214E-14
  0.177499995       6.72889546E-14
  0.178749993       4.42056602E-14
  0.180000007       1.51727504E-14
  0.181250006      -1.71258187E-14
  0.182500005      -4.95323726E-14
  0.183750004      -7.87152461E-14
  0.185000002      -1.01499673E-13
  0.186250001      -1.15197402E-13
  0.187500000      -1.17901443E-13
  0.188749999      -1.08714666E-13
  0.189999998      -8.78866072E-14
  0.191249996      -5.68412064E-14
  0.192499995      -1.80885699E-14
  0.193749994       2.49746055E-14
  0.194999993       6.83600380E-14
  0.196250007       1.07852448E-13
  0.197500005       1.39410063E-13
  0.198750004       1.59562955E-13
  0.200000003       1.65770121E-13
  0.201250002       1.56699537E-13
  0.202500001       1.32401739E-13
  0.203749999       9.43573222E-14
  0.204999998       4.53904763E-14
  0.206249997      -1.05465588E-14
  0.207499996      -6.87007756E-14
  0.208749995      -1.23929119E-13
  0.209999993      -1.71156031E-13
  0.211250007      -2.05836067E-13
  0.212500006      -2.24379068E-13
  0.213750005      -2.24498168E-13
  0.215000004      -2.05447801E-13
  0.216250002      -1.68128627E-13
  0.217500001      -1.15048419E-13
  0.218750000      -5.01408471E-14
  0.219999999       2.15430650E-14
  0.221249998       9.42445788E-14
  0.222499996       1.61973055E-13
  0.223749995       2.19007063E-13
  0.224999994       2.60378064E-13
  0.226249993       2.82295481E-13
  0.227500007       2.82477627E-13
  0.228750005       2.60360825E-13
  0.230000004       2.17169734E-13
  0.231250003       1.55843302E-13
  0.232500002       8.08227590E-14
  0.233750001      -2.28119843E-15
  0.234999999      -8.71154480E-14
  0.236249998      -1.67072370E-13
  0.237499997      -2.35801098E-13
  0.238749996      -2.87703373E-13
  0.239999995      -3.18376835E-13
  0.241249993      -3.24973148E-13
  0.242500007      -3.06444730E-13
  0.243750006      -2.63661461E-13
  0.245000005      -1.99388439E-13
  0.246250004      -1.18124735E-13
  0.247500002      -2.58123397E-14
  0.248750001       7.05667756E-14
  0.250000000       1.63480584E-13
  0.251249999       2.45392736E-13
  0.252499998       3.09328789E-13
  0.253749996       3.49425512E-13
  0.254999995       3.61425110E-13
  0.256249994       3.43078322E-13
  0.257499993       2.94423801E-13
  0.258749992       2.17917440E-13
  0.259999990       1.18393292E-13
  0.261249989       2.84699505E-15
  0.262499988      -1.19956128E-13
  0.263749987      -2.40033904E-13
  0.264999986      -3.46874629E-13
  0.266250014      -4.30220665E-13
  0.267500013      -4.80899120E-13
  0.268750012      -4.91642697E-13
  0.270000011      -4.57837652E-13
  0.271250010      -3.78135918E-13
  0.272500008      -2.54870859E-13
  0.273750007      -9.42246362E-14
  0.275000006       9.38909527E-14
  0.276250005       2.96261117E-13
  0.277500004       4.97100733E-13
  0.278750002       6.79067913E-13
  0.280000001       8.24507563E-13
  0.281250000       9.16851339E-13
  0.282499999       9.42078338E-13
  0.283749998       8.90126080E-13
  0.284999996       7.56133058E-13
  0.286249995       5.41394512E-13
  0.287499994       2.53923510E-13
  0.288749993      -9.14704713E-14
  0.289999992      -4.73643640E-13
  0.291249990      -8.66140493E-13
  0.292499989      -1.23875367E-12
  0.293749988      -1.55955077E-12
  0.294999987      -1.79725332E-12
  0.296249986      -1.92380985E-12
  0.297500014      -1.91697504E-12
  0.298750013      -1.76268581E-12
  0.300000012      -1.45701994E-12
  0.301250011      -1.00753553E-12
  0.302500010      -4.33820487E-13
  0.303750008       2.32869822E-13
  0.305000007       9.50948521E-13
  0.306250006       1.67079143E-12
  0.307500005       2.33789463E-12
  0.308750004       2.89672019E-12
  0.310000002       3.29498104E-12
  0.311250001       3.48805620E-12
  0.312500000       3.44318844E-12
  0.313749999       3.14310080E-12
  0.314999998       2.58868664E-12
  0.316249996       1.80047199E-12
  0.317499995       8.18623110E-13
  0.318749994      -2.98622536E-13
  0.319999993      -1.47810648E-12
  0.321249992      -2.63635164E-12
  0.322499990      -3.68535541E-12
  0.323749989      -4.53919281E-12
  0.324999988      -5.12094794E-12
  0.326249987      -5.36942756E-12
  0.327499986      -5.24508692E-12
  0.328750014      -4.73461808E-12
  0.330000013      -3.85372463E-12
  0.331250012      -2.64772427E-12
  0.332500011      -1.18977647E-12
  0.333750010       4.23272772E-13
  0.335000008       2.07724658E-12
  0.336250007       3.64880175E-12
  0.337500006       5.01483100E-12
  0.338750005       6.06238931E-12
  0.340000004       6.69834023E-12
  0.341250002       6.85788665E-12
  0.342500001       6.51119740E-12
  0.343750000       5.66745696E-12
  0.344999999       4.37584734E-12
  0.346249998       2.72320990E-12
  0.347499996       8.28408848E-13
  0.348749995      -1.16628831E-12
  0.349999994      -3.10622209E-12
  0.351249993      -4.83690475E-12
  0.352499992      -6.21711450E-12
  0.353749990      -7.13139313E-12
  0.354999989      -7.50081421E-12
  0.356249988      -7.29097425E-12
  0.357499987      -6.51635863E-12
  0.358749986      -5.24050985E-12
  0.360000014      -3.57177048E-12
  0.361250013      -1.65476671E-12
  0.362500012       3.41814549E-13
  0.363750011       2.24023079E-12
  0.365000010       3.87024397E-12
  0.366250008       5.08580027E-12
  0.367500007       5.78030939E-12
  0.368750006       5.89903647E-12
  0.370000005       5.44730710E-12
  0.371250004       4.49354096E-12
  0.372500002       3.16653778E-12
  0.373750001       1.64694083E-12
  0.375000000       1.53332371E-13
  0.376249999      -1.07607011E-12
  0.377499998      -1.80468357E-12
  0.378749996      -1.82000248E-12
  0.379999995      -9.55212038E-13
  0.381249994       8.92081276E-13
  0.382499993       3.74591851E-12
  0.383749992       7.54446158E-12
  0.384999990       1.21399835E-11
  0.386249989       1.73068972E-11
  0.387499988       2.27576465E-11
  0.388749987       2.81655775E-11
  0.389999986       3.31932398E-11
  0.391250014       3.75239700E-11
  0.392500013       4.08942220E-11
  0.393750012       4.31238656E-11
  0.395000011       4.41417111E-11
  0.396250010       4.40037728E-11
  0.397500008       4.29022408E-11
  0.398750007       4.11638397E-11
  0.400000006       3.92371309E-11
  0.401250005       3.76691595E-11
  0.402500004       3.70728240E-11
  0.403750002       3.80872590E-11
  0.405000001       4.13341444E-11
  0.406250000       4.73733830E-11
  0.407499999       5.66618905E-11
  0.408749998       6.95190988E-11
  0.409999996       8.61023544E-11
  0.411249995       1.06394893E-10
  0.412499994       1.30207997E-10
  0.413749993       1.57197852E-10
  0.414999992       1.86896582E-10
  0.416249990       2.18755694E-10
  0.417499989       2.52198956E-10
  0.418749988       2.86680929E-10
  0.419999987       3.21747018E-10
  0.421249986       3.57090135E-10
  0.422500014       3.92599536E-10
  0.423750013       4.28397789E-10
  0.425000012       4.64862510E-10
  0.426250011       5.02631048E-10
  0.427500010       5.42586920E-10
  0.428750008       5.85828774E-10
  0.430000007       6.33623987E-10
  0.431250006       6.87350121E-10
  0.432500005       7.48428652E-10
  0.433750004       8.18256130E-10
  0.435000002       8.98138564E-10
  0.436250001       9.89233806E-10
  0.437500000       1.09250697E-09
  0.438749999       1.20870314E-09
  0.439999998       1.33833999E-09
  0.441249996       1.48172075E-09
  0.442499995       1.63896763E-09
  0.443749994       1.81007409E-09
  0.444999993       1.99497130E-09
  0.446249992       2.19360419E-09
  0.447499990       2.40601250E-09
  0.448749989       2.63240896E-09
  0.449999988       2.87324964E-09
  0.451249987       3.12929060E-09
  0.452499986       3.40162631E-09
  0.453750014       3.69170716E-09
  0.455000013       4.00133437E-09
  0.456250012       4.33263025E-09
  0.457500011       4.68798911E-09
  0.458750010       5.07001152E-09
  0.460000008       5.48142465E-09
  0.461250007       5.92499694E-09
  0.462500006       6.40345510E-09
  0.463750005       6.91940549E-09
  0.465000004       7.47526929E-09
  0.466250002       8.07323719E-09
  0.467500001       8.71524275E-09
  0.468750000       9.40296285E-09
  0.469999999       1.01378399E-08
  0.471249998       1.09211289E-08
  0.472499996       1.17539622E-08
  0.473749995       1.26374271E-08
  0.474999994       1.35726523E-08
  0.476249993       1.45608938E-08
  0.477499992       1.56036180E-08
  0.478749990       1.67025664E-08
  0.479999989       1.78598096E-08
  0.481249988       1.90777669E-08
  0.482499987       2.03592059E-08
  0.483749986       2.17072174E-08
  0.485000014       2.31251605E-08
  0.486250013       2.46165843E-08
  0.487500012       2.61851376E-08
  0.488750011       2.78344636E-08
  0.490000010       2.95680831E-08
  0.491250008       3.13892876E-08
  0.492500007       3.33010455E-08
  0.493750006       3.53059235E-08
  0.495000005       3.74060320E-08
  0.496250004       3.96029947E-08
  0.497500002       4.18979482E-08
  0.498750001       4.42915749E-08
  0.500000000       4.67841517E-08
  0.501250029       4.93756325E-08
  0.502499998       5.20657473E-08
  0.503750026       5.48540946E-08
  0.504999995       5.77402446E-08
  0.506250024       6.07238277E-08
  0.507499993       6.38046203E-08
  0.508750021       6.69825866E-08
  0.509999990       7.02579044E-08
  0.511250019       7.36309431E-08
  0.512499988       7.71022357E-08
  0.513750017       8.06723861E-08
  0.514999986       8.43419841E-08
  0.516250014       8.81114843E-08
  0.517499983       9.19810574E-08
  0.518750012       9.59504760E-08
  0.519999981       1.00018994E-07
  0.521250010       1.04185212E-07
  0.522499979       1.08447004E-07
  0.523750007       1.12801501E-07
  0.524999976       1.17245065E-07
  0.526250005       1.21773297E-07
  0.527499974       1.26381138E-07
  0.528750002       1.31062947E-07
  0.529999971       1.35812670E-07
  0.531250000       1.40623982E-07
  0.532500029       1.45490418E-07
  0.533749998       1.50405540E-07
  0.535000026       1.55363082E-07
  0.536249995       1.60357018E-07
  0.537500024       1.65381650E-07
  0.538749993       1.70431690E-07
  0.540000021       1.75502237E-07
  0.541249990       1.80588671E-07
  0.542500019       1.85686616E-07
  0.543749988       1.90791837E-07
  0.545000017       1.95900029E-07
  0.546249986       2.01006699E-07
  0.547500014       2.06107060E-07
  0.548749983       2.11195882E-07
  0.550000012       2.16267409E-07
  0.551249981       2.21315290E-07
  0.552500010       2.26332531E-07
  0.553749979       2.31311560E-07
  0.555000007       2.36244375E-07
  0.556249976       2.41122592E-07
  0.557500005       2.45937571E-07
  0.558749974       2.50680614E-07
  0.560000002       2.55343195E-07
  0.561249971       2.59917073E-07
  0.562500000       2.64394544E-07
  0.563750029       2.68768616E-07
  0.564999998       2.73033038E-07
  0.566250026       2.77182352E-07
  0.567499995       2.81212010E-07
  0.568750024       2.85118261E-07
  0.569999993       2.88898121E-07
  0.571250021       2.92549259E-07
  0.572499990       2.96069828E-07
  0.573750019       2.99458407E-07
  0.574999988       3.02713715E-07
  0.576250017       3.05834504E-07
  0.577499986       3.08819523E-07
  0.578750014       3.11667435E-07
  0.579999983       3.14376763E-07
  0.581250012       3.16945801E-07
  0.582499981       3.19372646E-07
  0.583750010       3.21655250E-07
  0.584999979       3.23791625E-07
  0.586250007       3.25780007E-07
  0.587499976       3.27618835E-07
  0.588750005       3.29306857E-07
  0.589999974       3.30843307E-07
  0.591250002       3.32227955E-07
  0.592499971       3.33461202E-07
  0.593750000       3.34544154E-07
  0.595000029       3.35478461E-07
  0.596249998       3.36266396E-07
  0.597500026       3.36910944E-07
  0.598749995       3.37415486E-07
  0.600000024       3.37783803E-07
  0.601249993       3.38020016E-07
  0.602500021       3.38128444E-07
  0.603749990       3.38113381E-07
  0.605000019       3.37979145E-07
  0.606249988       3.37730057E-07
  0.607500017       3.37370267E-07
  0.608749986       3.36903867E-07
  0.610000014       3.36334864E-07
  0.611249983       3.35667181E-07
  0.612500012       3.34904797E-07
  0.613749981       3.34051890E-07
  0.615000010       3.33112638E-07
  0.616249979       3.32091304E-07
  0.617500007       3.30992435E-07
  0.618749976       3.29820864E-07
  0.620000005       3.28581677E-07
  0.621249974       3.27280162E-07
  0.622500002       3.25921889E-07
  0.623749971       3.24512712E-07
  0.625000000       3.23058515E-07
  0.626250029       3.21565437E-07
  0.627499998       3.20039533E-07
  0.628750026       3.18486457E-07
  0.629999995       3.16911724E-07
  0.631250024       3.15320591E-07
  0.632499993       3.13717749E-07
  0.633750021       3.12107176E-07
  0.634999990       3.10492595E-07
  0.636250019       3.08877048E-07
  0.637499988       3.07263093E-07
  0.638750017       3.05652975E-07
  0.639999986       3.04048541E-07
  0.641250014       3.02451440E-07
  0.642499983       3.00863093E-07
  0.643750012       2.99285261E-07
  0.644999981       2.97719907E-07
  0.646250010       2.96169219E-07
  0.647499979       2.94635896E-07
  0.648750007       2.93123151E-07
  0.649999976       2.91634763E-07
  0.651250005       2.90174995E-07
  0.652499974       2.88748339E-07
  0.653750002       2.87359398E-07
  0.654999971       2.86012664E-07
  0.656250000       2.84712399E-07
  0.657500029       2.83462526E-07
  0.658749998       2.82266143E-07
  0.660000026       2.81125580E-07
  0.661249995       2.80042258E-07
  0.662500024       2.79016376E-07
  0.663749993       2.78046770E-07
  0.665000021       2.77131164E-07
  0.666249990       2.76266320E-07
  0.667500019       2.75448087E-07
  0.668749988       2.74671777E-07
  0.670000017       2.73932415E-07
  0.671249986       2.73225140E-07
  0.672500014       2.72545293E-07
  0.673749983       2.71888638E-07
  0.675000012       2.71251935E-07
  0.676249981       2.70632768E-07
  0.677500010       2.70029517E-07
  0.678749979       2.69441784E-07
  0.680000007       2.68869940E-07
  0.681249976       2.68314864E-07
  0.682500005       2.67777921E-07
  0.683749974       2.67260646E-07
  0.685000002       2.66764374E-07
  0.686249971       2.66289959E-07
  0.687500000       2.65837542E-07
  0.688750029       2.65406243E-07
  0.689999998       2.64993815E-07
  0.691250026       2.64596878E-07
  0.692499995       2.64211224E-07
  0.693750024       2.63831510E-07
  0.694999993       2.63451852E-07
  0.696250021       2.63066084E-07
  0.697499990       2.62667982E-07
  0.698750019       2.62251802E-07
  0.699999988       2.61812460E-07
  0.701250017       2.61346145E-07
  0.702499986       2.60850271E-07
  0.703750014       2.60323219E-07
  0.704999983       2.59764874E-07
  0.706250012       2.59176232E-07
  0.707499981       2.58558885E-07
  0.708750010       2.57915360E-07
  0.709999979       2.57248587E-07
  0.711250007       2.56561464E-07
  0.712499976       2.55856634E-07
  0.713750005       2.55136058E-07
  0.714999974       2.54401101E-07
  0.716250002       2.53652502E-07
  0.717499971       2.52890089E-07
  0.718750000       2.52112926E-07
  0.720000029       2.51319818E-07
  0.721249998       2.50509231E-07
  0.722500026       2.49679658E-07
  0.723749995       2.48830219E-07
  0.725000024       2.47960685E-07
  0.726249993       2.47071910E-07
  0.727500021       2.46165683E-07
  0.728749990       2.45244820E-07
  0.730000019       2.44313554E-07
  0.731249988       2.43377286E-07
  0.732500017       2.42441985E-07
  0.733749986       2.41514044E-07
  0.735000014       2.40600428E-07
  0.736249983       2.39708328E-07
  0.737500012       2.38844365E-07
  0.738749981       2.38014579E-07
  0.740000010       2.37224228E-07
  0.741249979       2.36477547E-07
  0.742500007       2.35778188E-07
  0.743749976       2.35128724E-07
  0.745000005       2.34531285E-07
  0.746249974       2.33987663E-07
  0.747500002       2.33499037E-07
  0.748749971       2.33067098E-07
  0.750000000       2.32693793E-07
  0.751250029       2.32381439E-07
  0.752499998       2.32133488E-07
  0.753750026       2.31954090E-07
  0.754999995       2.31847750E-07
  0.756250024       2.31819598E-07
  0.757499993       2.31875418E-07
  0.758750021       2.32021193E-07
  0.759999990       2.32262934E-07
  0.761250019       2.32606766E-07
  0.762499988       2.33058259E-07
  0.763750017       2.33622401E-07
  0.764999986       2.34304125E-07
  0.766250014       2.35107947E-07
  0.767499983       2.36037195E-07
  0.768750012       2.37094213E-07
  0.769999981       2.38281103E-07
  0.771250010       2.39599643E-07
  0.772499979       2.41051026E-07
  0.773750007       2.42636020E-07
  0.774999976       2.44355590E-07
  0.776250005       2.46210817E-07
  0.777499974       2.48202099E-07
  0.778750002       2.50329464E-07
  0.779999971       2.52593026E-07
  0.781250000       2.54992358E-07
  0.782500029       2.57526636E-07
  0.783749998       2.60194668E-07
  0.785000026       2.62995087E-07
  0.786249995       2.65926616E-07
  0.787500024       2.68987492E-07
  0.788749993       2.72175583E-07
  0.790000021       2.75488816E-07
  0.791249990       2.78924887E-07
  0.792500019       2.82481125E-07
  0.793749988       2.86154943E-07
  0.795000017       2.89943813E-07
  0.796249986       2.93844948E-07
  0.797500014       2.97855024E-07
  0.798749983       3.01970459E-07
  0.800000012       3.06187303E-07
  0.801249981       3.10501122E-07
  0.802500010       3.14906799E-07
  0.803749979       3.19398680E-07
  0.805000007       3.23970369E-07
  0.806249976       3.28614590E-07
  0.807500005       3.33323470E-07
  0.808749974       3.38088313E-07
  0.810000002       3.42900364E-07
  0.811249971       3.47750841E-07
  0.812500000       3.52630906E-07
  0.813750029       3.57532400E-07
  0.814999998       3.62447309E-07
  0.816250026       3.67368159E-07
  0.817499995       3.72288468E-07
  0.818750024       3.77202042E-07
  0.819999993       3.82103366E-07
  0.821250021       3.86987949E-07
  0.822499990       3.91851017E-07
  0.823750019       3.96687682E-07
  0.824999988       4.01493338E-07
  0.826250017       4.06262643E-07
  0.827499986       4.10989145E-07
  0.828750014       4.15665340E-07
  0.829999983       4.20282987E-07
  0.831250012       4.24833388E-07
  0.832499981       4.29307505E-07
  0.833750010       4.33695448E-07
  0.834999979       4.37987410E-07
  0.836250007       4.42174297E-07
  0.837499976       4.46248009E-07
  0.838750005       4.50201412E-07
  0.839999974       4.54028623E-07
  0.841250002       4.57725150E-07
  0.842499971       4.61288039E-07
  0.843750000       4.64716351E-07
  0.845000029       4.68010199E-07
  0.846249998       4.71170665E-07
  0.847500026       4.74199823E-07
  0.848749995       4.77099661E-07
  0.850000024       4.79872199E-07
  0.851249993       4.82518942E-07
  0.852500021       4.85039777E-07
  0.853749990       4.87434136E-07
  0.855000019       4.89700483E-07
  0.856249988       4.91835863E-07
  0.857500017       4.93837149E-07
  0.858749986       4.95701158E-07
  0.860000014       4.97424821E-07
  0.861249983       4.99005864E-07
  0.862500012       5.00442752E-07
  0.863749981       5.01734746E-07
  0.865000010       5.02882813E-07
  0.866249979       5.03889453E-07
  0.867500007       5.04758759E-07
  0.868749976       5.05496075E-07
  0.870000005       5.06107540E-07