 -0.200000003       0.00000000    
 -0.198750004       0.00000000    
 -0.197500005       0.00000000    
 -0.196250007       0.00000000    
 -0.194999993       0.00000000    
 -0.193749994       0.00000000    
 -0.192499995       0.00000000    
 -0.191249996       0.00000000    
 -0.189999998       0.00000000    
 -0.188749999       0.00000000    
 -0.187500000       0.00000000    
 -0.186250001       0.00000000    
 -0.185000002       0.00000000    
 -0.183750004       0.00000000    
 -0.182500005       0.00000000    
 -0.181250006       0.00000000    
 -0.180000007       0.00000000    
 -0.178749993       0.00000000    
 -0.177499995       0.00000000    
 -0.176249996       0.00000000    
 -0.174999997       0.00000000    
 -0.173749998       0.00000000    
 -0.172499999       0.00000000    
 -0.171250001       0.00000000    
 -0.170000002       0.00000000    
 -0.168750003       0.00000000    
 -0.167500004       0.00000000    
 -0.166250005       0.00000000    
 -0.165000007       0.00000000    
 -0.163749993       0.00000000    
 -0.162499994       0.00000000    
 -0.161249995       0.00000000    
 -0.159999996       0.00000000    
 -0.158749998       0.00000000    
 -0.157499999       0.00000000    
 -0.156250000       0.00000000    
 -0.155000001       0.00000000    
 -0.153750002       0.00000000    
 -0.152500004       0.00000000    
 -0.151250005       0.00000000    
 -0.150000006       0.00000000    
 -0.148750007       0.00000000    
 -0.147499993       0.00000000    
 -0.146249995       0.00000000    
 -0.144999996       0.00000000    
 -0.143749997       0.00000000    
 -0.142499998       0.00000000    
 -0.141249999       0.00000000    
 -0.140000001       0.00000000    
 -0.138750002       0.00000000    
 -0.137500003       0.00000000    
 -0.136250004       0.00000000    
 -0.135000005       0.00000000    
 -0.133750007       0.00000000    
 -0.132499993       0.00000000    
 -0.131249994       0.00000000    
 -0.129999995       0.00000000    
 -0.128749996       0.00000000    
 -0.127499998       0.00000000    
 -0.126249999       0.00000000    
 -0.125000000       0.00000000    
 -0.123750001       0.00000000    
 -0.122500002       0.00000000    
 -0.121250004       0.00000000    
 -0.119999997       0.00000000    
 -0.118749999       0.00000000    
 -0.117500000       0.00000000    
 -0.116250001       0.00000000    
 -0.115000002       0.00000000    
 -0.113750003      -2.80259693E-45
 -0.112499997      -8.40779079E-45
 -0.111249998      -1.12103877E-44
 -0.109999999      -1.40129846E-45
 -0.108750001       2.52233724E-44
 -0.107500002       7.28675201E-44
 -0.106250003       3.41916825E-43
 -0.104999997       8.39377780E-43
 -0.103749998       1.32702965E-42
 -0.102499999       1.54843480E-42
 -0.101250000       1.01033619E-42
 -0.100000001      -2.90068782E-43
  -9.87500027E-02  -2.77737356E-42
  -9.74999964E-02  -7.56981430E-42
  -9.62499976E-02  -1.39527288E-41
  -9.49999988E-02  -2.06537381E-41
  -9.37500000E-02  -2.56017229E-41
  -9.25000012E-02  -2.34577363E-41
  -9.12500024E-02  -6.99247934E-42
  -9.00000036E-02   3.28996853E-41
  -8.87499973E-02   1.04947446E-40
  -8.74999985E-02   2.13259409E-40
  -8.62499997E-02   3.50872524E-40
  -8.50000009E-02   4.88950869E-40
  -8.37500021E-02   5.68316210E-40
  -8.25000033E-02   4.91742256E-40
  -8.12499970E-02   1.22914895E-40
  -7.99999982E-02  -6.93717009E-40
  -7.87499994E-02  -2.08910480E-39
  -7.75000006E-02  -4.09436710E-39
  -7.62500018E-02  -6.52719079E-39
  -7.50000030E-02  -8.85764543E-39
  -7.37499967E-02  -1.00847233E-38
  -7.24999979E-02  -8.67840674E-39
  -7.12499991E-02  -2.66730296E-39
  -7.00000003E-02   1.00308405E-38
  -6.87500015E-02   3.09386018E-38
  -6.75000027E-02   5.99716338E-38
  -6.62499964E-02   9.40723721E-38
  -6.49999976E-02   1.25737816E-37
  -6.37499988E-02   1.41878263E-37
  -6.25000000E-02   1.23675542E-37
  -6.12500012E-02   4.82842777E-38
  -5.99999987E-02  -1.06743361E-37
  -5.87499999E-02  -3.55670043E-37
  -5.75000010E-02  -6.93431581E-37
  -5.62499985E-02  -1.08224563E-36
  -5.49999997E-02  -1.43864224E-36
  -5.37500009E-02  -1.62539017E-36
  -5.24999984E-02  -1.45442575E-36
  -5.12499996E-02  -7.07777200E-37
  -5.00000007E-02   8.17267667E-37
  -4.87499982E-02   3.23567663E-36
  -4.74999994E-02   6.47802496E-36
  -4.62500006E-02   1.01822664E-35
  -4.50000018E-02   1.35982756E-35
  -4.37499993E-02   1.55416697E-35
  -4.25000004E-02   1.44425610E-35
  -4.12500016E-02   8.53648747E-36
  -3.99999991E-02  -3.76620455E-36
  -3.87500003E-02  -2.33242487E-35
  -3.75000015E-02  -4.95615739E-35
  -3.62499990E-02  -7.97190078E-35
  -3.50000001E-02  -1.08238739E-34
  -3.37500013E-02  -1.26527044E-34
  -3.24999988E-02  -1.23381907E-34
  -3.12500000E-02  -8.63601835E-35
  -2.99999993E-02  -4.26800446E-36
  -2.87500005E-02   1.29230887E-34
  -2.74999999E-02   3.11184372E-34
  -2.62499992E-02   5.24764693E-34
  -2.50000004E-02   7.35588916E-34
  -2.37499997E-02   8.90352941E-34
  -2.25000009E-02   9.19357162E-34
  -2.12500002E-02   7.44375691E-34
  -1.99999996E-02   2.92782031E-34
  -1.87500007E-02  -4.82179747E-34
  -1.75000001E-02  -1.57659617E-33
  -1.62499994E-02  -2.91003949E-33
  -1.49999997E-02  -4.30412142E-33
  -1.37499999E-02  -5.47255913E-33
  -1.25000002E-02  -6.03072316E-33
  -1.12500004E-02  -5.53211849E-33
  -9.99999978E-03  -3.53684393E-33
  -8.75000004E-03   2.87546857E-34
  -7.49999983E-03   6.03921941E-33
  -6.25000009E-03   1.34443684E-32
  -4.99999989E-03   2.17331626E-32
  -3.74999992E-03   2.95624222E-32
  -2.49999994E-03   3.50236543E-32
  -1.24999997E-03   3.57751773E-32
   0.00000000       2.93290572E-32
   1.24999997E-03   1.35056543E-32
   2.49999994E-03  -1.29603924E-32
   3.74999992E-03  -4.97177922E-32
   4.99999989E-03  -9.41007678E-32
   6.25000009E-03  -1.40582788E-31
   7.49999983E-03  -1.80566394E-31
   8.75000004E-03  -2.02710827E-31
   9.99999978E-03  -1.93981947E-31
   1.12500004E-02  -1.41545507E-31
   1.25000002E-02  -3.55062359E-32
   1.37499999E-02   1.27680515E-31
   1.49999997E-02   3.41520300E-31
   1.62499994E-02   5.86154098E-31
   1.75000001E-02   8.26258647E-31
   1.87500007E-02   1.01118065E-30
   1.99999996E-02   1.07830946E-30
   2.12500002E-02   9.60473300E-31
   2.25000009E-02   5.97650480E-31
   2.37499997E-02  -4.74959021E-32
   2.50000004E-02  -9.71790584E-31
   2.62499992E-02  -2.11413938E-30
   2.74999999E-02  -3.34238785E-30
   2.87500005E-02  -4.44909716E-30
   2.99999993E-02  -5.16104763E-30
   3.12500000E-02  -5.16646356E-30
   3.24999988E-02  -4.16191279E-30
   3.37500013E-02  -1.91749234E-30
   3.50000001E-02   1.64557511E-30
   3.62499990E-02   6.37590393E-30
   3.75000015E-02   1.18273306E-29
   3.87500003E-02   1.72280783E-29
   3.99999991E-02   2.15038113E-29
   4.12500016E-02   2.33714563E-29
   4.25000004E-02   2.15125517E-29
   4.37499993E-02   1.48216845E-29
   4.50000018E-02   2.70818175E-30
   4.62500006E-02  -1.45901697E-29
   4.74999994E-02  -3.57406827E-29
   4.87499982E-02  -5.81682603E-29
   5.00000007E-02  -7.81002930E-29
   5.12499996E-02  -9.08646225E-29
   5.24999984E-02  -9.14712182E-29
   5.37500009E-02  -7.54613237E-29
   5.49999997E-02  -3.99479278E-29
   5.62499985E-02   1.52930303E-29
   5.75000010E-02   8.68786276E-29
   5.87499999E-02   1.67255893E-28
   5.99999987E-02   2.44753196E-28
   6.12500012E-02   3.04432276E-28
   6.25000000E-02   3.29827059E-28
   6.37499988E-02   3.05507330E-28
   6.49999976E-02   2.20225635E-28
   6.62499964E-02   7.02206095E-29
   6.75000027E-02  -1.37903337E-28
   6.87500015E-02  -3.85381832E-28
   7.00000003E-02  -6.41217527E-28
   7.12499991E-02  -8.64304974E-28
   7.24999979E-02  -1.00793621E-27
   7.37499967E-02  -1.02646519E-27
   7.50000030E-02  -8.83445540E-28
   7.62500018E-02  -5.60115606E-28
   7.75000006E-02  -6.27778412E-29
   7.87499994E-02   5.72496591E-28
   7.99999982E-02   1.27924514E-27
   8.12499970E-02   1.96501014E-27
   8.25000033E-02   2.52094253E-27
   8.37500021E-02   2.83587233E-27
   8.50000009E-02   2.81314617E-27
   8.62499997E-02   2.38774869E-27
   8.74999985E-02   1.54080202E-27
   8.87499973E-02   3.08641901E-28
   9.00000036E-02  -1.21563205E-27
   9.12500024E-02  -2.88899834E-27
   9.25000012E-02  -4.53302202E-27
   9.37500000E-02  -5.95368501E-27
   9.49999988E-02  -6.96293239E-27
   9.62499976E-02  -7.39780507E-27
   9.74999964E-02  -7.13356440E-27
   9.87500027E-02  -6.08882059E-27
  0.100000001      -4.22322772E-27
  0.101250000      -1.53124373E-27
  0.102499999       1.96199433E-27
  0.103749998       6.19534454E-27
  0.104999997       1.10504044E-26
  0.106250003       1.63113863E-26
  0.107500002       2.16093222E-26
  0.108750001       2.63618795E-26
  0.109999999       2.97284482E-26
  0.111249998       3.06066383E-26
  0.112499997       2.76984132E-26
  0.113750003       1.96692483E-26
  0.115000002       5.41058086E-27
  0.116250001      -1.56057764E-26
  0.117500000      -4.29205876E-26
  0.118749999      -7.46970172E-26
  0.119999997      -1.07443003E-25
  0.121250004      -1.35956294E-25
  0.122500002      -1.53597998E-25
  0.123750001      -1.52970582E-25
  0.125000000      -1.27020029E-25
  0.126249999      -7.05005238E-26
  0.127499998       1.83564805E-26
  0.128749996       1.36223940E-25
  0.129999995       2.73444458E-25
  0.131249994       4.13548201E-25
  0.132499993       5.33867978E-25
  0.133750007       6.07495522E-25
  0.135000005       6.06645475E-25
  0.136250004       5.07249592E-25
  0.137500003       2.94321193E-25
  0.138750002      -3.26470918E-26
  0.140000001      -4.55208438E-25
  0.141249999      -9.33469562E-25
  0.142499998      -1.40657962E-24
  0.143749997      -1.79694133E-24
  0.144999996      -2.01842586E-24
  0.146249995      -1.98824996E-24
  0.147499993      -1.64144925E-24
  0.148750007      -9.46171208E-25
  0.150000006       8.25674578E-26
  0.151250005       1.37331996E-24
  0.152500004       2.79543176E-24
  0.153750002       4.16510078E-24
  0.155000001       5.26133897E-24
  0.156250000       5.85151184E-24
  0.157499999       5.72450958E-24
  0.158749998       4.72796092E-24
  0.159999996       2.80451688E-24
  0.161249995       2.13697088E-26
  0.162499994      -3.41291520E-24
  0.163749993      -7.14934225E-24
  0.165000007      -1.07205108E-23
  0.166250005      -1.35844183E-23
  0.167500004      -1.51875619E-23
  0.168750003      -1.50415501E-23
  0.170000002      -1.28044778E-23
  0.171250001      -8.35618663E-24
  0.172499999      -1.85572211E-24
  0.173749998       6.22993946E-24
  0.174999997       1.51343596E-23
  0.176249996       2.38417952E-23
  0.177499995       3.11784272E-23
  0.178749993       3.59384581E-23
  0.180000007       3.70334822E-23
  0.181250006       3.36491270E-23
  0.182500005       2.53903134E-23
  0.183750004       1.23958684E-23
  0.185000002      -4.59497317E-24
  0.186250001      -2.42376456E-23
  0.187500000      -4.46465611E-23
  0.188749999      -6.35293731E-23
  0.189999998      -7.83845517E-23
  0.191249996      -8.67487492E-23
  0.192499995      -8.64745664E-23
  0.193749994      -7.60150029E-23
  0.194999993      -5.46882808E-23
  0.196250007      -2.28958295E-23
  0.197500005       1.77329652E-23
  0.198750004       6.42935206E-23
  0.200000003       1.12676865E-22
  0.201250002       1.57773708E-22
  0.202500001       1.93819603E-22
  0.203749999       2.14878870E-22
  0.204999998       2.15451949E-22
  0.206249997       1.91174407E-22
  0.207499996       1.39556802E-22
  0.208749995       6.06945478E-23
  0.209999993      -4.21416816E-23
  0.211250007      -1.62137990E-22
  0.212500006      -2.88898408E-22
  0.213750005      -4.08832074E-22
  0.215000004      -5.06035262E-22
  0.216250002      -5.63690821E-22
  0.217500001      -5.65941587E-22
  0.218750000      -5.00115751E-22
  0.219999999      -3.59098218E-22
  0.221249998      -1.43563736E-22
  0.222499996       1.36269196E-22
  0.223749995       4.59725467E-22
  0.224999994       7.95936319E-22
  0.226249993       1.10552881E-21
  0.227500007       1.34384800E-21
  0.228750005       1.46562682E-21
  0.230000004       1.43078881E-21
  0.231250003       1.21083742E-21
  0.232500002       7.95079048E-22
  0.233750001       1.95784674E-22
  0.234999999      -5.48644101E-22
  0.236249998      -1.37335620E-21
  0.237499997      -2.19020422E-21
  0.238749996      -2.89463454E-21
  0.239999995      -3.37611101E-21
  0.241249993      -3.53134066E-21
  0.242500007      -3.27904694E-21
  0.243750006      -2.57458714E-21
  0.245000005      -1.42243561E-21
  0.246250004       1.15514379E-22
  0.247500002       1.91765952E-21
  0.248750001       3.80773531E-21
  0.250000000       5.56777734E-21
  0.251249999       6.95860197E-21
  0.252499998       7.74636711E-21
  0.253749996       7.73274448E-21
  0.254999995       6.78539568E-21
  0.256249994       4.86491616E-21
  0.257499993       2.04430196E-21
  0.258749992      -1.48259846E-21
  0.259999990      -5.40629416E-21
  0.261249989      -9.32180367E-21
  0.262499988      -1.27633419E-20
  0.263749987      -1.52512750E-20
  0.264999986      -1.63473006E-20
  0.266250014      -1.57122844E-20
  0.267500013      -1.31602004E-20
  0.268750012      -8.70129058E-21
  0.270000011      -2.56802341E-21
  0.271250010       4.78131356E-21
  0.272500008       1.26845409E-20
  0.273750007       2.03236176E-20
  0.275000006       2.67964869E-20
  0.276250005       3.12074856E-20
  0.277500004       3.27684724E-20
  0.278750002       3.09007632E-20
  0.280000001       2.53268131E-20
  0.281250000       1.61404570E-20
  0.282499999       3.84558529E-21
  0.283749998      -1.06446286E-20
  0.284999996      -2.60526560E-20
  0.286249995      -4.08262940E-20
  0.287499994      -5.32691616E-20
  0.288749993      -6.17034409E-20
  0.289999992      -6.46519714E-20
  0.291249990      -6.10231494E-20
  0.292499989      -5.02798310E-20
  0.293749988      -3.25725566E-20
  0.294999987      -8.81841661E-21
  0.296249986       1.92900635E-20
  0.297500014       4.93566781E-20
  0.298750013       7.84377506E-20
  0.300000012       1.03278398E-19
  0.301250011       1.20615496E-19
  0.302500010       1.27524923E-19
  0.303750008       1.21782609E-19
  0.305000007       1.02202824E-19
  0.306250006       6.89140518E-20
  0.307500005       2.35333191E-20
  0.308750004      -3.07949164E-20
  0.310000002      -8.95196572E-20
  0.311250001      -1.46974421E-19
  0.312500000      -1.96831633E-19
  0.313749999      -2.32694178E-19
  0.314999998      -2.48778860E-19
  0.316249996      -2.40629348E-19
  0.317499995      -2.05783821E-19
  0.318749994      -1.44316767E-19
  0.319999993      -5.91771473E-20
  0.321249992       4.37426420E-20
  0.322499990       1.55851581E-19
  0.323749989       2.66433298E-19
  0.324999988       3.63527810E-19
  0.326249987       4.35063863E-19
  0.327499986       4.70148729E-19
  0.328750014       4.60392651E-19
  0.330000013       4.01125961E-19
  0.331250012       2.92361792E-19
  0.332500011       1.39368172E-19
  0.333750010      -4.72594424E-20
  0.335000008      -2.52091150E-19
  0.336250007      -4.55932131E-19
  0.337500006      -6.37418091E-19
  0.338750005      -7.75022377E-19
  0.340000004      -8.49304851E-19
  0.341250002      -8.45187662E-19
  0.342500001      -7.54018659E-19
  0.343750000      -5.75182676E-19
  0.344999999      -3.17043233E-19
  0.346249998       2.95156258E-21
  0.347499996       3.59094303E-19
  0.348749995       7.19182206E-19
  0.349999994       1.04713032E-18
  0.351249993       1.30624826E-18
  0.352499992       1.46291120E-18
  0.353749990       1.49028819E-18
  0.354999989       1.37175590E-18
  0.356249988       1.10362231E-18
  0.357499987       6.96819378E-19
  0.358749986       1.77295450E-19
  0.360000014      -4.15058216E-19
  0.361250013      -1.02898146E-18
  0.362500012      -1.60580945E-18
  0.363750011      -2.08456980E-18
  0.365000010      -2.40781606E-18
  0.366250008      -2.52769231E-18
  0.367500007      -2.41164963E-18
  0.368750006      -2.04721225E-18
  0.370000005      -1.44522567E-18
  0.371250004      -6.41110935E-19
  0.372500002       3.06199903E-19
  0.373750001       1.31777492E-18
  0.375000000       2.30053652E-18
  0.376249999       3.15510943E-18
  0.377499998       3.78507798E-18
  0.378749996       4.10686199E-18
  0.379999995       4.05928132E-18
  0.381249994       3.61181259E-18
  0.382499993       2.77057136E-18
  0.383749992       1.58119183E-18
  0.384999990       1.28006768E-19
  0.386249989      -1.47074615E-18
  0.387499988      -3.07158652E-18
  0.388749987      -4.51780036E-18
  0.389999986      -5.65388743E-18
  0.391250014      -6.34119346E-18
  0.392500013      -6.47323920E-18
  0.393750012      -5.98915201E-18
  0.395000011      -4.88366234E-18
  0.396250010      -3.21235012E-18
  0.397500008      -1.09120467E-18
  0.398750007       1.30992601E-18
  0.400000006       3.77982538E-18
  0.401250005       6.08354241E-18
  0.402500004       7.98378018E-18
  0.403750002       9.26416726E-18
  0.405000001       9.75220548E-18
  0.406250000       9.33956891E-18
  0.407499999       7.99753206E-18
  0.408749998       5.78564945E-18
  0.409999996       2.85236711E-18
  0.411249995      -5.73039192E-19
  0.412499994      -4.19698456E-18
  0.413749993      -7.68548562E-18
  0.414999992      -1.06936115E-17
  0.416249990      -1.28979676E-17
  0.417499989      -1.40292876E-17
  0.418749988      -1.39020093E-17
  0.419999987      -1.24378186E-17
  0.421249986      -9.68056171E-18
  0.422500014      -5.80056517E-18
  0.423750013      -1.08728146E-18
  0.425000012       4.06980513E-18
  0.426250011       9.21099278E-18
  0.427500010       1.38448470E-17
  0.428750008       1.74923752E-17
  0.430000007       1.97332008E-17
  0.431250006       2.02495948E-17
  0.432500005       1.88641500E-17
  0.433750004       1.55671388E-17
  0.435000002       1.05302069E-17
  0.436250001       4.10407067E-18
  0.437500000      -3.20084342E-18
  0.438749999      -1.07504272E-17
  0.439999998      -1.78375907E-17
  0.441249996      -2.37440739E-17
  0.442499995      -2.78084788E-17
  0.443749994      -2.94945508E-17
  0.444999993      -2.84531536E-17
  0.446249992      -2.45713753E-17
  0.447499990      -1.80028449E-17
  0.448749989      -9.17456871E-18
  0.449999988       1.23246685E-18
  0.451249987       1.23293529E-17
  0.452499986       2.30897393E-17
  0.453750014       3.24398200E-17
  0.455000013       3.93604266E-17
  0.456250012       4.29919513E-17
  0.457500011       4.27316740E-17
  0.458750010       3.83129446E-17
  0.460000008       2.98566839E-17
  0.461250007       1.78877493E-17
  0.462500006       3.31185953E-18
  0.463750005      -1.26474716E-17
  0.465000004      -2.85483190E-17
  0.466250002      -4.28582988E-17
  0.467500001      -5.40997826E-17
  0.468750000      -6.09985284E-17
  0.469999999      -6.26206627E-17
  0.471249998      -5.84833038E-17
  0.472499996      -4.86261465E-17
  0.473749995      -3.36347453E-17
  0.474999994      -1.46109494E-17
  0.476249993       6.90876385E-18
  0.477499992       2.90807884E-17
  0.478749990       4.99165582E-17
  0.479999989       6.74641625E-17
  0.481249988       7.99919519E-17
  0.482499987       8.61559959E-17
  0.483749986       8.51347521E-17
  0.485000014       7.67173291E-17
  0.486250013       6.13364086E-17
  0.487500012       4.00424271E-17
  0.488750011       1.44214159E-17
  0.490000010      -1.35355782E-17
  0.491250008      -4.15989560E-17
  0.492500007      -6.74872177E-17
  0.493750006      -8.90566735E-17
  0.495000005      -1.04477285E-16
  0.496250004      -1.12379739E-16
  0.497500002      -1.11962165E-16
  0.498750001      -1.03049109E-16
  0.500000000      -8.60999793E-17
  0.501250029      -6.21687574E-17
  0.502499998      -3.28206804E-17
  0.503750026      -1.45657071E-20
  0.504999995       3.40383697E-17
  0.506250024       6.70277751E-17
  0.507499993       9.66981680E-17
  0.508750021       1.20993402E-16
  0.509999990       1.38183129E-16
  0.511250019       1.46964703E-16
  0.512499988       1.46536223E-16
  0.513750017       1.36638538E-16
  0.514999986       1.17565897E-16
  0.516250014       9.01467784E-17
  0.517499983       5.56976772E-17
  0.518750012       1.59538474E-17
  0.519999981      -2.70178910E-17
  0.521250010      -7.09190908E-17
  0.522499979      -1.13326669E-16
  0.523750007      -1.51801566E-16
  0.524999976      -1.83994773E-16
  0.526250005      -2.07747086E-16
  0.527499974      -2.21180883E-16
  0.528750002      -2.22783562E-16
  0.529999971      -2.11484103E-16
  0.531250000      -1.86724416E-16
  0.532500029      -1.48527929E-16
  0.533749998      -9.75664760E-17
  0.535000026      -3.52239081E-17
  0.536249995       3.63484205E-17
  0.537500024       1.14193316E-16
  0.538749993       1.94540055E-16
  0.540000021       2.72844135E-16
  0.541249990       3.43893338E-16
  0.542500019       4.01997496E-16
  0.543749988       4.41274572E-16
  0.545000017       4.56037880E-16
  0.546249986       4.41276399E-16
  0.547500014       3.93205585E-16
  0.548749983       3.09849814E-16
  0.550000012       1.91602294E-16
  0.551249981       4.16958453E-17
  0.552500010      -1.33488462E-16
  0.553749979      -3.24346386E-16
  0.555000007      -5.18270555E-16
  0.556249976      -7.00206139E-16
  0.557500005      -8.53553407E-16
  0.558749974      -9.61391924E-16
  0.560000002      -1.00795947E-15
  0.561249971      -9.80281288E-16
  0.562500000      -8.69808181E-16
  0.563750029      -6.73898354E-16
  0.564999998      -3.96969005E-16
  0.566250026      -5.11509300E-17
  0.567499995       3.43693624E-16
  0.568750024       7.60682809E-16
  0.569999993       1.16738822E-15
  0.571250021       1.52802700E-15
  0.572499990       1.80625435E-15
  0.573750019       1.96836354E-15
  0.574999988       1.98663573E-15
  0.576250017       1.84254082E-15
  0.577499986       1.52947066E-15
  0.578750014       1.05469663E-15
  0.579999983       4.40286482E-16
  0.581250012      -2.77213502E-16
  0.582499981      -1.04842901E-15
  0.583750010      -1.81412392E-15
  0.584999979      -2.50934379E-15
  0.586250007      -3.06847659E-15
  0.587499976      -3.43086714E-15
  0.588750005      -3.54653817E-15
  0.589999974      -3.38152387E-15
  0.591250002      -2.92231174E-15
  0.592499971      -2.17892979E-15
  0.593750000      -1.18628680E-15
  0.595000029      -3.50087320E-18
  0.596249998       1.28890230E-15
  0.597500026       2.59386412E-15
  0.598749995       3.80450396E-15
  0.600000024       4.81225040E-15
  0.601249993       5.51582307E-15
  0.602500021       5.83037765E-15
  0.603749990       5.69605178E-15
  0.605000019       5.08513646E-15
  0.606249988       4.00715405E-15
  0.607500017       2.51123415E-15
  0.608749986       6.85357598E-16
  0.610000014      -1.34773382E-15
  0.611249983      -3.43789265E-15
  0.612500012      -5.41784508E-15
  0.613749981      -7.11576370E-15
  0.615000010      -8.36926320E-15
  0.616249979      -9.03975330E-15
  0.617500007      -9.02595005E-15
  0.618749976      -8.27533825E-15
  0.620000005      -6.79243767E-15
  0.621249974      -4.64291073E-15
  0.622500002      -1.95282557E-15
  0.623749971       1.09724309E-15
  0.625000000       4.28318134E-15
  0.626250029       7.35282874E-15
  0.627499998       1.00450213E-14
  0.628750026       1.21108263E-14
  0.629999995       1.33353132E-14
  0.631250024       1.35580456E-14
  0.632499993       1.26904416E-14
  0.633750021       1.07282923E-14
  0.634999990       7.75802474E-15
  0.636250019       3.95572941E-15
  0.637499988      -4.21464933E-16
  0.638750017      -5.05145759E-15
  0.639999986      -9.56981720E-15
  0.641250014      -1.35975071E-14
  0.642499983      -1.67716657E-14
  0.643750012      -1.87770213E-14
  0.644999981      -1.93753129E-14
  0.646250010      -1.84300817E-14
  0.647499979      -1.59244396E-14
  0.648750007      -1.19698698E-14
  0.649999976      -6.80475565E-15
  0.651250005      -7.82135295E-16
  0.652499974       5.65292848E-15
  0.653750002       1.19950741E-14
  0.654999971       1.77173187E-14
  0.656250000       2.23138209E-14
  0.657500029       2.53433494E-14
  0.658749998       2.64698186E-14
  0.660000026       2.54962880E-14
  0.661249995       2.23891882E-14
  0.662500024       1.72901430E-14
  0.663749993       1.05136940E-14
  0.665000021       2.53034830E-15
  0.666249990      -6.06445139E-15
  0.667500019      -1.45935645E-14
  0.668749988      -2.23505838E-14
  0.670000017      -2.86575200E-14
  0.671249986      -3.29230898E-14
  0.672500014      -3.46966820E-14
  0.673749983      -3.37131785E-14
  0.675000012      -2.99243357E-14
  0.676249981      -2.35133517E-14
  0.677500010      -1.48905106E-14
  0.678749979      -4.66936738E-15
  0.680000007       6.37545479E-15
  0.681249976       1.73661270E-14
  0.682500005       2.73909127E-14
  0.683749974       3.55794868E-14
  0.685000002       4.11780663E-14
  0.686249971       4.36179142E-14
  0.687500000       4.25710221E-14
  0.688750029       3.79876421E-14
  0.689999998       3.01116723E-14
  0.691250026       1.94716713E-14
  0.692499995       6.84729703E-15
  0.693750024      -6.78690994E-15
  0.694999993      -2.03364310E-14
  0.696250021      -3.26746314E-14
  0.697499990      -4.27364985E-14
  0.698750019      -4.96104385E-14
  0.699999988      -5.26201973E-14
  0.701250017      -5.13895770E-14
  0.702499986      -4.58838459E-14
  0.703750014      -3.64235924E-14
  0.704999983      -2.36689923E-14
  0.706250012      -8.57493550E-15
  0.707499981       7.67999098E-15
  0.708750010       2.37853933E-14
  0.709999979       3.84046297E-14
  0.711250007       5.02854526E-14
  0.712499976       5.83665671E-14
  0.713750005       6.18710270E-14
  0.714999974       6.03782635E-14
  0.716250002       5.38682834E-14
  0.717499971       4.27336152E-14
  0.718750000       2.77573561E-14
  0.720000029       1.00583655E-14
  0.721249998      -8.99253121E-15
  0.722500026      -2.78789290E-14
  0.723749995      -4.50595134E-14
  0.725000024      -5.90932942E-14
  0.726249993      -6.87591734E-14
  0.727500021      -7.31598823E-14
  0.728749990      -7.18015057E-14
  0.730000019      -6.46416446E-14
  0.731249988      -5.21017250E-14
  0.732500017      -3.50419224E-14
  0.733749986      -1.47001721E-14
  0.735000014       7.40028715E-15
  0.736249983       2.95677450E-14
  0.737500012       5.00740230E-14
  0.738749981       6.72911569E-14
  0.740000010       7.98216948E-14
  0.741249979       8.66119513E-14
  0.742500007       8.70389711E-14
  0.743749976       8.09638069E-14
  0.745000005       6.87466509E-14
  0.746249974       5.12222880E-14
  0.747500002       2.96375947E-14
  0.748749971       5.55601309E-15
  0.750000000      -1.92634130E-14
  0.751250029      -4.30027209E-14
  0.752499998      -6.39263829E-14
  0.753750026      -8.05158823E-14
  0.754999995      -9.15865758E-14
  0.756250024      -9.63773942E-14
  0.757499993      -9.46061534E-14
  0.758750021      -8.64861093E-14
  0.759999990      -7.27025794E-14
  0.761250019      -5.43518172E-14
  0.762499988      -3.28474430E-14
  0.763750017      -9.80237772E-15
  0.764999986       1.31036793E-14
  0.766250014       3.42600195E-14
  0.767499983       5.22525477E-14
  0.768750012       6.59725299E-14
  0.769999981       7.46974436E-14
  0.771250010       7.81372918E-14
  0.772499979       7.64427245E-14
  0.773750007       7.01746468E-14
  0.774999976       6.02383066E-14
  0.776250005       4.77880268E-14
  0.777499974       3.41113619E-14
  0.778750002       2.05032135E-14
  0.779999971       8.14153076E-15
  0.781250000      -2.02390497E-15
  0.782500029      -9.35918552E-15
  0.783749998      -1.36020557E-14
  0.785000026      -1.48801869E-14
  0.786249995      -1.36897626E-14
  0.787500024      -1.08358460E-14
  0.788749993      -7.33971921E-15
  0.790000021      -4.32157226E-15
  0.791249990      -2.86953777E-15
  0.792500019      -3.90781149E-15
  0.793749988      -8.07709358E-15
  0.795000017      -1.56399026E-14
  0.796249986      -2.64214225E-14
  0.797500014      -3.97936316E-14
  0.798749983      -5.47064191E-14
  0.800000012      -6.97651979E-14
  0.801249981      -8.33498919E-14
  0.802500010      -9.37656731E-14
  0.803749979      -9.94125775E-14
  0.805000007      -9.89582087E-14
  0.806249976      -9.14967565E-14
  0.807500005      -7.66779015E-14
  0.808749974      -5.47911156E-14
  0.810000002      -2.67943271E-14
  0.811249971       5.71934137E-15
  0.812500000       4.06174762E-14
  0.813750029       7.53817581E-14
  0.814999998       1.07307887E-13
  0.816250026       1.33736202E-13
  0.817499995       1.52293447E-13
  0.818750024       1.61123935E-13
  0.819999993       1.59088617E-13
  0.821250021       1.45912308E-13
  0.822499990       1.22263487E-13
  0.823750019       8.97564764E-14
  0.824999988       5.08725583E-14
  0.826250017       8.80415193E-15
  0.827499986      -3.27668699E-14
  0.828750014      -6.99391987E-14
  0.829999983      -9.88879117E-14
  0.831250012      -1.16160662E-13
  0.832499981      -1.18948173E-13
  0.833750010      -1.05304586E-13
  0.834999979      -7.42975153E-14
  0.836250007      -2.60733360E-14
  0.837499976       3.81689885E-14
  0.838750005       1.16294195E-13
  0.839999974       2.05427770E-13
  0.841250002       3.02216965E-13
  0.842499971       4.03133500E-13
  0.843750000       5.04791901E-13
  0.845000029       6.04256283E-13
  0.846249998       6.99310022E-13
  0.847500026       7.88666658E-13
  0.848749995       8.72106315E-13
  0.850000024       9.50528827E-13
  0.851249993       1.02592392E-12
  0.852500021       1.10126589E-12
  0.853749990       1.18034727E-12
  0.855000019       1.26757285E-12
  0.856249988       1.36773568E-12
  0.857500017       1.48579933E-12
  0.858749986       1.62671016E-12
  0.860000014       1.79525568E-12
  0.861249983       1.99598151E-12
  0.862500012       2.23317176E-12
  0.863749981       2.51089015E-12
  0.865000010       2.83307232E-12
  0.866249979       3.20365284E-12
  0.867500007       3.62670939E-12
  0.868749976       4.10660395E-12
  0.870000005       4.64809918E-12