 -0.200000003       0.00000000    
 -0.198750004       0.00000000    
 -0.197500005       0.00000000    
 -0.196250007       0.00000000    
 -0.194999993       0.00000000    
 -0.193749994       0.00000000    
 -0.192499995       0.00000000    
 -0.191249996       0.00000000    
 -0.189999998       3.76012694E-29
 -0.188749999       5.91571820E-28
 -0.187500000       4.84257559E-27
 -0.186250001       2.73520078E-26
 -0.185000002       1.19261348E-25
 -0.183750004       4.25681128E-25
 -0.182500005       1.28705487E-24
 -0.181250006       3.36349543E-24
 -0.180000007       7.67382826E-24
 -0.178749993       1.52856931E-23
 -0.177499995       2.62034791E-23
 -0.176249996       3.69039576E-23
 -0.174999997       3.62105236E-23
 -0.173749998       1.00520009E-25
 -0.172499999      -1.12147129E-22
 -0.171250001      -3.55453151E-22
 -0.170000002      -7.82530126E-22
 -0.168750003      -1.40534937E-21
 -0.167500004      -2.13019728E-21
 -0.166250005      -2.67334394E-21
 -0.165000007      -2.48423845E-21
 -0.163749993      -7.29122905E-22
 -0.162499994       3.58856112E-21
 -0.161249995       1.12886453E-20
 -0.159999996       2.24047491E-20
 -0.158749998       3.53407553E-20
 -0.157499999       4.59772511E-20
 -0.156250000       4.71024041E-20
 -0.155000001       2.87207222E-20
 -0.153750002      -2.01298231E-20
 -0.152500004      -1.07560874E-19
 -0.151250005      -2.32984157E-19
 -0.150000006      -3.80016364E-19
 -0.148750007      -5.10028295E-19
 -0.147499993      -5.59367499E-19
 -0.146249995      -4.44033189E-19
 -0.144999996      -7.53896546E-20
 -0.143749997       6.11150453E-19
 -0.142499998       1.61600620E-18
 -0.141249999       2.83047723E-18
 -0.140000001       3.99947244E-18
 -0.138750002       4.70951435E-18
 -0.137500003       4.42169645E-18
 -0.136250004       2.56595872E-18
 -0.135000005      -1.29762211E-18
 -0.133750007      -7.26312306E-18
 -0.132499993      -1.48454998E-17
 -0.131249994      -2.27920353E-17
 -0.129999995      -2.90200138E-17
 -0.128749996      -3.07661888E-17
 -0.127499998      -2.50138540E-17
 -0.126249999      -9.21450499E-18
 -0.125000000       1.77562690E-17
 -0.123750001       5.45647143E-17
 -0.122500002       9.65578385E-17
 -0.121250004       1.35393465E-16
 -0.119999997       1.59487265E-16
 -0.118749999       1.55524712E-16
 -0.117500000       1.11106265E-16
 -0.116250001       1.83237413E-17
 -0.115000002      -1.22263250E-16
 -0.113750003      -2.98100726E-16
 -0.112499997      -4.82639373E-16
 -0.111249998      -6.35969225E-16
 -0.109999999      -7.08966736E-16
 -0.108750001      -6.51293903E-16
 -0.107500002      -4.22767617E-16
 -0.106250003      -6.62897042E-18
 -0.104999997       5.77740792E-16
 -0.103749998       1.26583187E-15
 -0.102499999       1.94613549E-15
 -0.101250000       2.46825846E-15
 -0.100000001       2.66254261E-15
  -9.87500027E-02   2.37055998E-15
  -9.74999964E-02   1.48321134E-15
  -9.62499976E-02  -1.95714308E-17
  -9.49999988E-02  -2.03571261E-15
  -9.37500000E-02  -4.32364326E-15
  -9.25000012E-02  -6.50917673E-15
  -9.12500024E-02  -8.12223197E-15
  -9.00000036E-02  -8.66425851E-15
  -8.87499973E-02  -7.70092540E-15
  -8.74999985E-02  -4.96784993E-15
  -8.62499997E-02  -4.71171977E-16
  -8.50000009E-02   5.43885658E-15
  -8.37500021E-02   1.20431517E-14
  -8.25000033E-02   1.82953238E-14
  -8.12499970E-02   2.29377200E-14
  -7.99999982E-02   2.46873021E-14
  -7.87499994E-02   2.24717384E-14
  -7.75000006E-02   1.56817037E-14
  -7.62500018E-02   4.39453864E-15
  -7.50000030E-02  -1.04796932E-14
  -7.37499967E-02  -2.71744856E-14
  -7.24999979E-02  -4.31960308E-14
  -7.12499991E-02  -5.56130832E-14
  -7.00000003E-02  -6.14867789E-14
  -6.87500015E-02  -5.83892879E-14
  -6.75000027E-02  -4.49341322E-14
  -6.62499964E-02  -2.12242807E-14
  -6.49999976E-02   1.08776310E-14
  -6.37499988E-02   4.77373573E-14
  -6.25000000E-02   8.42428883E-14
  -6.12500012E-02   1.14404769E-13
  -5.99999987E-02   1.32209117E-13
  -5.87499999E-02   1.32616113E-13
  -5.75000010E-02   1.12554422E-13
  -5.62499985E-02   7.17406684E-14
  -5.49999997E-02   1.31579106E-14
  -5.37500009E-02  -5.69373379E-14
  -5.24999984E-02  -1.29546479E-13
  -5.12499996E-02  -1.93983176E-13
  -5.00000007E-02  -2.39343051E-13
  -4.87499982E-02  -2.56199277E-13
  -4.74999994E-02  -2.38269718E-13
  -4.62500006E-02  -1.83781362E-13
  -4.50000018E-02  -9.62716438E-14
  -4.37499993E-02   1.53639342E-14
  -4.25000004E-02   1.37666937E-13
  -4.12500016E-02   2.54210688E-13
  -3.99999991E-02   3.47815716E-13
  -3.87500003E-02   4.03089048E-13
  -3.75000015E-02   4.08907310E-13
  -3.62499990E-02   3.60443771E-13
  -3.50000001E-02   2.60374675E-13
  -3.37500013E-02   1.19009810E-13
  -3.24999988E-02  -4.67549075E-14
  -3.12500000E-02  -2.15579778E-13
  -2.99999993E-02  -3.64647819E-13
  -2.87500005E-02  -4.73033288E-13
  -2.74999999E-02  -5.24952260E-13
  -2.62499992E-02  -5.12362071E-13
  -2.50000004E-02  -4.36447780E-13
  -2.37499997E-02  -3.07689746E-13
  -2.25000009E-02  -1.44425677E-13
  -2.12500002E-02   2.99362552E-14
  -1.99999996E-02   1.90651883E-13
  -1.87500007E-02   3.15741845E-13
  -1.75000001E-02   3.89771494E-13
  -1.62499994E-02   4.06632003E-13
  -1.49999997E-02   3.70770445E-13
  -1.37499999E-02   2.96545855E-13
  -1.25000002E-02   2.05689537E-13
  -1.12500004E-02   1.23183852E-13
  -9.99999978E-03   7.21745932E-14
  -8.75000004E-03   6.87683688E-14
  -7.49999983E-03   1.17663949E-13
  -6.25000009E-03   2.09526230E-13
  -4.99999989E-03   3.20796260E-13
  -3.74999992E-03   4.16294847E-13
  -2.49999994E-03   4.54526255E-13
  -1.24999997E-03   3.95111786E-13
   0.00000000       2.07346347E-13
   1.24999997E-03  -1.21453290E-13
   2.49999994E-03  -5.79293341E-13
   3.74999992E-03  -1.12595111E-12
   4.99999989E-03  -1.69362397E-12
   6.25000009E-03  -2.19237736E-12
   7.49999983E-03  -2.52029799E-12
   8.75000004E-03  -2.57751741E-12
   9.99999978E-03  -2.28255717E-12
   1.12500004E-02  -1.58885893E-12
   1.25000002E-02  -4.99025463E-13
   1.37499999E-02   9.25718378E-13
   1.49999997E-02   2.56300493E-12
   1.62499994E-02   4.23521808E-12
   1.75000001E-02   5.72427522E-12
   1.87500007E-02   6.79460654E-12
   1.99999996E-02   7.22237721E-12
   2.12500002E-02   6.82789068E-12
   2.25000009E-02   5.50720624E-12
   2.37499997E-02   3.25861603E-12
   2.50000004E-02   1.99665900E-13
   2.62499992E-02  -3.42888912E-12
   2.74999999E-02  -7.27458935E-12
   2.87500005E-02  -1.09009000E-11
   2.99999993E-02  -1.38296510E-11
   3.12500000E-02  -1.55948553E-11
   3.24999988E-02  -1.58026179E-11
   3.37500013E-02  -1.41902948E-11
   3.50000001E-02  -1.06774242E-11
   3.62499990E-02  -5.40091973E-12
   3.75000015E-02   1.27180731E-12
   3.87500003E-02   8.75629777E-12
   3.99999991E-02   1.62926304E-11
   4.12500016E-02   2.30135789E-11
   4.25000004E-02   2.80341687E-11
   4.37499993E-02   3.05543403E-11
   4.50000018E-02   2.99638508E-11
   4.62500006E-02   2.59370025E-11
   4.74999994E-02   1.85046561E-11
   4.87499982E-02   8.09248328E-12
   5.00000007E-02  -4.48292141E-12
   5.12499996E-02  -1.80640902E-11
   5.24999984E-02  -3.12479591E-11
   5.37500009E-02  -4.25198904E-11
   5.49999997E-02  -5.04146482E-11
   5.62499985E-02  -5.36883767E-11
   5.75000010E-02  -5.14826584E-11
   5.87499999E-02  -4.34608113E-11
   5.99999987E-02  -2.98980285E-11
   6.12500012E-02  -1.17107617E-11
   6.25000000E-02   9.58380857E-12
   6.37499988E-02   3.19797973E-11
   6.49999976E-02   5.31598827E-11
   6.62499964E-02   7.07233647E-11
   6.75000027E-02   8.24437463E-11
   6.87500015E-02   8.65289992E-11
   7.00000003E-02   8.18559179E-11
   7.12499991E-02   6.81499926E-11
   7.24999979E-02   4.60863916E-11
   7.37499967E-02   1.72944888E-11
   7.50000030E-02  -1.57417187E-11
   7.62500018E-02  -4.98845826E-11
   7.75000006E-02  -8.16303483E-11
   7.87499994E-02  -1.07458056E-10
   7.99999982E-02  -1.24206118E-10
   8.12499970E-02  -1.29436975E-10
   8.25000033E-02  -1.21749888E-10
   8.37500021E-02  -1.01003234E-10
   8.50000009E-02  -6.84172788E-11
   8.62499997E-02  -2.65372117E-11
   8.74999985E-02   2.09475909E-11
   8.87499973E-02   6.95186478E-11
   9.00000036E-02   1.14251525E-10
   9.12500024E-02   1.50308724E-10
   9.25000012E-02   1.73453280E-10
   9.37500000E-02   1.80529244E-10
   9.49999988E-02   1.69855768E-10
   9.62499976E-02   1.41487586E-10
   9.74999964E-02   9.73070027E-11
   9.87500027E-02   4.09273830E-11
  0.100000001      -2.25903740E-11
  0.101250000      -8.71889921E-11
  0.102499999      -1.46393453E-10
  0.103749998      -1.93962527E-10
  0.104999997      -2.24546950E-10
  0.106250003      -2.34285008E-10
  0.107500002      -2.21268948E-10
  0.108750001      -1.85827548E-10
  0.109999999      -1.30586222E-10
  0.111249998      -6.02891695E-11
  0.112499997       1.86071488E-11
  0.113750003       9.85354923E-11
  0.115000002       1.71557255E-10
  0.116250001       2.30167191E-10
  0.117500000       2.68079781E-10
  0.118749999       2.80913265E-10
  0.119999997       2.66695860E-10
  0.121250004       2.26134625E-10
  0.122500002       1.62612049E-10
  0.123750001       8.19026166E-11
  0.125000000      -8.36628596E-12
  0.126249999      -9.94594060E-11
  0.127499998      -1.82408713E-10
  0.128749996      -2.48928461E-10
  0.129999995      -2.92273622E-10
  0.131249994      -3.07949277E-10
  0.132499993      -2.94193087E-10
  0.133750007      -2.52176863E-10
  0.135000005      -1.85902876E-10
  0.136250004      -1.01803559E-10
  0.137500003      -8.08551923E-12
  0.138750002       8.61118746E-11
  0.140000001       1.71654524E-10
  0.141249999       2.40346021E-10
  0.142499998       2.85754809E-10
  0.143749997       3.03847641E-10
  0.144999996       2.93362112E-10
  0.146249995       2.55881177E-10
  0.147499993       1.95606795E-10
  0.148750007       1.18861115E-10
  0.150000006       3.33775126E-11
  0.151250005      -5.25367042E-11
  0.152500004      -1.30869621E-10
  0.153750002      -1.94708347E-10
  0.155000001      -2.38889325E-10
  0.156250000      -2.60429206E-10
  0.157499999      -2.58694899E-10
  0.158749998      -2.35308967E-10
  0.159999996      -1.93811980E-10
  0.161249995      -1.39138132E-10
  0.162499994      -7.69763073E-11
  0.163749993      -1.31037603E-11
  0.165000007       4.72251960E-11
  0.166250005       9.97619834E-11
  0.167500004       1.41563580E-10
  0.168750003       1.71090225E-10
  0.170000002       1.88101881E-10
  0.171250001       1.93390345E-10
  0.172499999       1.88403973E-10
  0.173749998       1.74837395E-10
  0.174999997       1.54258772E-10
  0.176249996       1.27843514E-10
  0.177499995       9.62592783E-11
  0.178749993       5.97243852E-11
  0.180000007       1.82289808E-11
  0.181250006      -2.81230074E-11
  0.182500005      -7.87152496E-11
  0.183750004      -1.32045777E-10
  0.185000002      -1.85464810E-10
  0.186250001      -2.35095110E-10
  0.187500000      -2.75990952E-10
  0.188749999      -3.02546710E-10
  0.189999998      -3.09136827E-10
  0.191249996      -2.90921953E-10
  0.192499995      -2.44721632E-10
  0.193749994      -1.69829595E-10
  0.194999993      -6.86420434E-11
  0.196250007       5.30278252E-11
  0.197500005       1.86039392E-10
  0.198750004       3.18471305E-10
  0.200000003       4.36613218E-10
  0.201250002       5.26336752E-10
  0.202500001       5.74714165E-10
  0.203749999       5.71707459E-10
  0.204999998       5.11718445E-10
  0.206249997       3.94791089E-10
  0.207499996       2.27271008E-10
  0.208749995       2.17834813E-11
  0.209999993      -2.03545139E-10
  0.211250007      -4.26599672E-10
  0.212500006      -6.23416818E-10
  0.213750005      -7.70752073E-10
  0.215000004      -8.48803750E-10
  0.216250002      -8.43784764E-10
  0.217500001      -7.50014550E-10
  0.218750000      -5.71247882E-10
  0.219999999      -3.21008747E-10
  0.221249998      -2.18178687E-11
  0.222499996       2.96689728E-10
  0.223749995       6.00619998E-10
  0.224999994       8.55385374E-10
  0.226249993       1.02961362E-09
  0.227500007       1.09896869E-09
  0.228750005       1.04942433E-09
  0.230000004       8.79573303E-10
  0.231250003       6.01633521E-10
  0.232500002       2.40941156E-10
  0.233750001      -1.66109529E-10
  0.234999999      -5.75535841E-10
  0.236249998      -9.40352574E-10
  0.237499997      -1.21578692E-09
  0.238749996      -1.36458411E-09
  0.239999995      -1.36177181E-09
  0.241249993      -1.19830779E-09
  0.242500007      -8.83119966E-10
  0.243750006      -4.43200338E-10
  0.245000005       7.83715801E-11
  0.246250004       6.26379282E-10
  0.247500002       1.13904530E-09
  0.248750001       1.55470137E-09
  0.250000000       1.81884496E-09
  0.251249999       1.89079508E-09
  0.252499998       1.74917003E-09
  0.253749996       1.39549450E-09
  0.254999995       8.55415461E-10
  0.256249994       1.77262385E-10
  0.257499993      -5.72036418E-10
  0.258749992      -1.31335998E-09
  0.259999990      -1.96353400E-09
  0.261249989      -2.44436671E-09
  0.262499988      -2.69163780E-09
  0.263749987      -2.66300160E-09
  0.264999986      -2.34389441E-09
  0.266250014      -1.75067782E-09
  0.267500013      -9.30521216E-10
  0.268750012       4.21079317E-11
  0.270000011       1.07212728E-09
  0.271250010       2.05311368E-09
  0.272500008       2.87826518E-09
  0.273750007       3.45192031E-09
  0.275000006       3.70040421E-09
  0.276250005       3.58098151E-09
  0.277500004       3.08786618E-09
  0.278750002       2.25450769E-09
  0.280000001       1.15174992E-09
  0.281250000      -1.18123025E-10
  0.282499999      -1.43091827E-09
  0.283749998      -2.65281352E-09
  0.284999996      -3.65414032E-09
  0.286249995      -4.32322622E-09
  0.287499994      -4.57882665E-09
  0.288749993      -4.37978986E-09
  0.289999992      -3.73078102E-09
  0.291249990      -2.68333555E-09
  0.292499989      -1.33202405E-09
  0.293749988       1.94066124E-10
  0.294999987       1.74381043E-09
  0.296249986       3.15911808E-09
  0.297500014       4.29128644E-09
  0.298750013       5.01677677E-09
  0.300000012       5.25075494E-09
  0.301250011       4.95701746E-09
  0.302500010       4.15305523E-09
  0.303750008       2.90944757E-09
  0.305000007       1.34403233E-09
  0.306250006      -3.89295735E-10
  0.307500005      -2.11579554E-09
  0.308750004      -3.65737329E-09
  0.310000002      -4.85121499E-09
  0.311250001      -5.56681412E-09
  0.312500000      -5.72015324E-09
  0.313749999      -5.28367261E-09
  0.314999998      -4.28989111E-09
  0.316249996      -2.82953128E-09
  0.317499995      -1.04324349E-09
  0.318749994       8.92116880E-10
  0.319999993       2.78091439E-09
  0.321249992       4.42824755E-09
  0.322499990       5.66058844E-09
  0.323749989       6.34367758E-09
  0.324999988       6.39663700E-09
  0.326249987       5.80182613E-09
  0.327499986       4.60740335E-09
  0.328750014       2.92346658E-09
  0.330000013       9.12287801E-10
  0.331250012      -1.22815647E-09
  0.332500011      -3.28331584E-09
  0.333750010      -5.04357001E-09
  0.335000008      -6.32542552E-09
  0.336250007      -6.99059122E-09
  0.337500006      -6.96110680E-09
  0.338750005      -6.22652507E-09
  0.340000004      -4.84846874E-09
  0.341250002      -2.95374947E-09
  0.342500001      -7.21905091E-10
  0.343750000       1.62940395E-09
  0.344999999       3.86878396E-09
  0.346249998       5.77195403E-09
  0.347499996       7.14346093E-09
  0.348749995       7.83963738E-09
  0.349999994       7.78010456E-09
  0.351249993       6.95857150E-09
  0.352499992       5.44485257E-09
  0.353749990       3.37590156E-09
  0.354999989       9.48674139E-10
  0.356249988      -1.60456737E-09
  0.357499987      -4.03151290E-09
  0.358749986      -6.09196604E-09
  0.360000014      -7.57690444E-09
  0.361250013      -8.32669755E-09
  0.362500012      -8.25533419E-09
  0.363750011      -7.35314032E-09
  0.365000010      -5.69260816E-09
  0.366250008      -3.42303941E-09
  0.367500007      -7.54018958E-10
  0.368750006       2.06167372E-09
  0.370000005       4.75041340E-09
  0.371250004       7.04571068E-09
  0.372500002       8.71056205E-09
  0.373750001       9.56355173E-09
  0.375000000       9.50120249E-09
  0.376249999       8.49609361E-09
  0.377499998       6.62109390E-09
  0.378749996       4.02719369E-09
  0.379999995       9.45012069E-10
  0.381249994      -2.34863284E-09
  0.382499993      -5.54274360E-09
  0.383749992      -8.33533687E-09
  0.384999990      -1.04420828E-08
  0.386249989      -1.16338645E-08
  0.387499988      -1.17780949E-08
  0.388749987      -1.08236931E-08
  0.389999986      -8.80746676E-09
  0.391250014      -5.88604276E-09
  0.392500013      -2.30994601E-09
  0.393750012       1.62409863E-09
  0.395000011       5.55213342E-09
  0.396250010       9.12334741E-09
  0.397500008       1.19869297E-08
  0.398750007       1.38671883E-08
  0.400000006       1.45417669E-08
  0.401250005       1.39205234E-08
  0.402500004       1.20357573E-08
  0.403750002       8.97536090E-09
  0.405000001       5.01352160E-09
  0.406250000       4.86027663E-10
  0.407499999      -4.21499413E-09
  0.408749998      -8.65985594E-09
  0.409999996      -1.24323920E-08
  0.411249995      -1.51908051E-08
  0.412499994      -1.66526455E-08
  0.413749993      -1.66676681E-08
  0.414999992      -1.51938107E-08
  0.416249990      -1.23182096E-08
  0.417499989      -8.29627389E-09
  0.418749988      -3.47355789E-09
  0.419999987       1.71424286E-09
  0.421249986       6.79236800E-09
  0.422500014       1.12890630E-08
  0.423750013       1.48332333E-08
  0.425000012       1.69831740E-08
  0.426250011       1.76171877E-08
  0.427500010       1.66045684E-08
  0.428750008       1.40504808E-08
  0.430000007       1.02133413E-08
  0.431250006       5.39212763E-09
  0.432500005       6.31009620E-11
  0.433750004      -5.28846167E-09
  0.435000002      -1.01156852E-08
  0.436250001      -1.39843754E-08
  0.437500000      -1.65564913E-08
  0.438749999      -1.75240391E-08
  0.439999998      -1.68449521E-08
  0.441249996      -1.45432697E-08
  0.442499995      -1.08503606E-08
  0.443749994      -6.14783691E-09
  0.444999993      -8.80408690E-10
  0.446249992       4.48016824E-09
  0.447499990       9.27283672E-09
  0.448749989       1.30679094E-08
  0.449999988       1.54897837E-08
  0.451249987       1.63762017E-08
  0.452499986       1.56039661E-08
  0.453750014       1.31640627E-08
  0.455000013       9.42908684E-09
  0.456250012       4.75661066E-09
  0.457500011      -2.19350968E-10
  0.458750010      -5.19831733E-09
  0.460000008      -9.49519219E-09
  0.461250007      -1.26592550E-08
  0.462500006      -1.44230770E-08
  0.463750005      -1.45673082E-08
  0.465000004      -1.31490392E-08
  0.466250002      -1.02854569E-08
  0.467500001      -6.35817310E-09
  0.468750000      -1.80288462E-09
  0.469999999       3.00480774E-09
  0.471249998       7.49098561E-09
  0.472499996       1.11388223E-08
  0.473749995       1.35877407E-08
  0.474999994       1.45913468E-08
  0.476249993       1.40985579E-08
  0.477499992       1.22836541E-08
  0.478749990       9.20372578E-09
  0.479999989       5.26442312E-09
  0.481249988       9.91586591E-10
  0.482499987      -3.25420690E-09
  0.483749986      -6.65264421E-09
  0.485000014      -9.12259601E-09
  0.486250013      -1.03966347E-08
  0.487500012      -1.04567315E-08
  0.488750011      -9.23377463E-09
  0.490000010      -6.98016844E-09
  0.491250008      -4.04146627E-09
  0.492500007      -8.29326940E-10
  0.493750006       2.25360575E-09
  0.495000005       4.67548089E-09
  0.496250004       6.23197138E-09
  0.497500002       6.61057697E-09
  0.498750001       5.93750027E-09
  0.500000000       4.25480762E-09
  0.501250029       1.76682702E-09
  0.502499998      -1.14783660E-09
  0.503750026      -3.77403842E-09
  0.504999995      -5.92548099E-09
  0.506250024      -7.30769267E-09
  0.507499993      -7.43389439E-09
  0.508750021      -6.06370198E-09
  0.509999990      -3.56370200E-09
  0.511250019      -1.86298088E-10
  0.512499988       4.08653866E-09
  0.513750017       8.17307733E-09
  0.514999986       1.17427890E-08
  0.516250014       1.40985579E-08
  0.517499983       1.48677888E-08
  0.518750012       1.35576927E-08
  0.519999981       1.01442312E-08
  0.521250010       5.09014431E-09
  0.522499979      -1.70072123E-09
  0.523750007      -9.13461573E-09
  0.524999976      -1.66947114E-08
  0.526250005      -2.33713955E-08
  0.527499974      -2.81009616E-08
  0.528750002      -3.04086534E-08
  0.529999971      -2.98798071E-08
  0.531250000      -2.61117794E-08
  0.532500029      -1.92788470E-08
  0.533749998      -9.87980808E-09
  0.535000026       1.14783660E-09
  0.536249995       1.29927891E-08
  0.537500024       2.43810110E-08
  0.538749993       3.40264421E-08
  0.540000021       4.06250003E-08
  0.541249990       4.34735590E-08
  0.542500019       4.21153850E-08
  0.543749988       3.63822110E-08
  0.545000017       2.65865392E-08
  0.546249986       1.35997604E-08
  0.547500014      -1.22596155E-09
  0.548749983      -1.65625007E-08
  0.550000012      -3.05528864E-08
  0.551249981      -4.18930313E-08
  0.552500010      -4.90865411E-08
  0.553749979      -5.15625018E-08
  0.555000007      -4.84254805E-08
  0.556249976      -4.01983193E-08
  0.557500005      -2.75661058E-08
  0.558749974      -1.16706733E-08
  0.560000002       5.90745231E-09
  0.561249971       2.30408652E-08
  0.562500000       3.81250018E-08
  0.563750029       4.93149059E-08
  0.564999998       5.48798091E-08
  0.566250026       5.44531282E-08
  0.567499995       4.77163482E-08
  0.568750024       3.53245184E-08
  0.569999993       1.82752409E-08
  0.571250021      -1.80889426E-09
  0.572499990      -2.27283667E-08
  0.573750019      -4.23677911E-08
  0.574999988      -5.82391841E-08
  0.576250017      -6.85817341E-08
  0.577499986      -7.19230755E-08
  0.578750014      -6.77043275E-08
  0.579999983      -5.60787292E-08
  0.581250012      -3.79927911E-08
  0.582499981      -1.50060107E-08
  0.583750010       1.07271640E-08
  0.584999979       3.64393031E-08
  0.586250007       5.93359388E-08
  0.587499976       7.68810082E-08
  0.588750005       8.71243984E-08
  0.589999974       8.88912268E-08
  0.591250002       8.17277694E-08
  0.592499971       6.58593748E-08
  0.593750000       4.29957936E-08
  0.595000029       1.50600972E-08
  0.596249998      -1.49819712E-08
  0.597500026      -4.44411086E-08
  0.598749995      -6.96814908E-08
  0.600000024      -8.83233184E-08
  0.601249993      -9.79867849E-08
  0.602500021      -9.79086536E-08
  0.603749990      -8.75240431E-08
  0.605000019      -6.80498786E-08
  0.606249988      -4.07181489E-08
  0.607500017      -8.77103368E-09
  0.608749986       2.47055301E-08
  0.610000014       5.68780081E-08
  0.611249983       8.38551699E-08
  0.612500012       1.03200122E-07
  0.613749981       1.12481978E-07
  0.615000010       1.11069717E-07
  0.616249979       9.87349793E-08
  0.617500007       7.65745227E-08
  0.618749976       4.69471182E-08
  0.620000005       1.26562503E-08
  0.621249974      -2.25300489E-08
  0.622500002      -5.53245201E-08
  0.623749971      -8.25330559E-08
  0.625000000      -1.01072722E-07
  0.626250029      -1.09507212E-07
  0.627499998      -1.06872001E-07
  0.628750026      -9.39723606E-08
  0.629999995      -7.15865411E-08
  0.631250024      -4.23377422E-08
  0.632499993      -9.15264486E-09
  0.633750021       2.44531257E-08
  0.634999990       5.49579333E-08
  0.636250019       7.93509614E-08
  0.637499988       9.51442303E-08
  0.638750017       1.00829332E-07
  0.639999986       9.60757234E-08
  0.641250014       8.15084178E-08
  0.642499983       5.85456732E-08
  0.643750012       3.00721155E-08
  0.644999981      -1.05769238E-09
  0.646250010      -3.11778869E-08
  0.647499979      -5.74759618E-08
  0.648750007      -7.69651436E-08
  0.649999976      -8.75841337E-08
  0.651250005      -8.90444767E-08
  0.652499974      -8.11418275E-08
  0.653750002      -6.46334186E-08
  0.654999971      -4.18329336E-08
  0.656250000      -1.46995198E-08
  0.657500029       1.31129809E-08
  0.658749998       3.90024049E-08
  0.660000026       6.00721179E-08
  0.661249995       7.43329380E-08
  0.662500024       8.03726010E-08
  0.663749993       7.77764413E-08
  0.665000021       6.65805331E-08
  0.666249990       4.88641838E-08
  0.667500019       2.65564903E-08
  0.668749988       1.68870196E-09
  0.670000017      -2.24939907E-08
  0.671249986      -4.38341345E-08
  0.672500014      -6.00000050E-08
  0.673749983      -6.95312536E-08
  0.675000012      -7.22055304E-08
  0.676249981      -6.76802898E-08
  0.677500010      -5.68028860E-08
  0.678749979      -4.09975982E-08
  0.680000007      -2.29206734E-08
  0.681249976      -3.90624999E-09
  0.682500005       1.29687505E-08
  0.683749974       2.68569718E-08
  0.685000002       3.56730787E-08
  0.686249971       3.89903860E-08
  0.687500000       3.73978359E-08
  0.688750029       3.14663460E-08
  0.689999998       2.22475975E-08
  0.691250026       1.11838947E-08
  0.692499995       2.46394238E-10
  0.693750024      -8.66586536E-09
  0.694999993      -1.49459147E-08
  0.696250021      -1.70673076E-08
  0.697499990      -1.53725974E-08
  0.698750019      -9.69951941E-09
  0.699999988      -1.24999999E-09
  0.701250017       8.38942338E-09
  0.702499986       1.81370190E-08
  0.703750014       2.63641837E-08
  0.704999983       3.09795674E-08
  0.706250012       3.18689928E-08
  0.707499981       2.85336554E-08
  0.708750010       2.06370192E-08
  0.709999979       9.18870224E-09
  0.711250007      -4.65745220E-09
  0.712499976      -1.86418276E-08
  0.713750005      -3.12439923E-08
  0.714999974      -4.06730791E-08
  0.716250002      -4.47836541E-08
  0.717499971      -4.32692318E-08
  0.718750000      -3.53725973E-08
  0.720000029      -2.15264429E-08
  0.721249998      -3.54567309E-09
  0.722500026       1.67067320E-08
  0.723749995       3.71394258E-08
  0.725000024       5.54326931E-08
  0.726249993       6.83894257E-08
  0.727500021       7.43269268E-08
  0.728749990       7.15865411E-08
  0.730000019       6.01802910E-08
  0.731249988       4.06971168E-08
  0.732500017       1.42307695E-08
  0.733749986      -1.57091353E-08
  0.735000014      -4.71394230E-08
  0.736249983      -7.62379813E-08
  0.737500012      -9.96394292E-08
  0.738749981      -1.14170675E-07
  0.740000010      -1.17860580E-07
  0.741249979      -1.10072115E-07
  0.742500007      -9.05168278E-08
  0.743749976      -6.04447123E-08
  0.745000005      -2.29687505E-08
  0.746249974       1.84735587E-08
  0.747500002       5.92307714E-08
  0.748749971       9.55889448E-08
  0.750000000       1.23221156E-07
  0.751250029       1.39423079E-07
  0.752499998       1.41442314E-07
  0.753750026       1.28443517E-07
  0.754999995       1.02181495E-07
  0.756250024       6.41225952E-08
  0.757499993       1.81971167E-08
  0.758750021      -3.15264437E-08
  0.759999990      -7.95973563E-08
  0.761250019      -1.21640625E-07
  0.762499988      -1.52980775E-07
  0.763750017      -1.70306492E-07
  0.764999986      -1.71550482E-07
  0.766250014      -1.56430289E-07
  0.767499983      -1.25709136E-07
  0.768750012      -8.32992839E-08
  0.769999981      -3.27403846E-08
  0.771250010       2.14843752E-08
  0.772499979       7.35006012E-08
  0.773750007       1.18449520E-07
  0.774999976       1.51472364E-07
  0.776250005       1.68966352E-07
  0.777499974       1.69462140E-07
  0.778750002       1.52600663E-07
  0.779999971       1.20532604E-07
  0.781250000       7.62827028E-08
  0.782500029       2.43704932E-08
  0.783749998      -2.99834753E-08
  0.785000026      -8.15534875E-08
  0.786249995      -1.24576331E-07
  0.787500024      -1.55075128E-07
  0.788749993      -1.70408654E-07
  0.790000021      -1.68774037E-07
  0.791249990      -1.50420675E-07
  0.792500019      -1.17187504E-07
  0.793749988      -7.23677900E-08
  0.795000017      -2.06550492E-08
  0.796249986       3.31129826E-08
  0.797500014       8.34134610E-08
  0.798749983       1.25829331E-07
  0.800000012       1.56490387E-07
  0.801249981       1.72896634E-07
  0.802500010       1.73100972E-07
  0.803749979       1.58088952E-07
  0.805000007       1.29855778E-07
  0.806249976       9.12620237E-08
  0.807500005       4.64302907E-08
  0.808749974      -2.88461532E-10
  0.810000002      -4.39663488E-08
  0.811249971      -8.09855791E-08
  0.812500000      -1.07644233E-07
  0.813750029      -1.21730778E-07
  0.814999998      -1.22572118E-07
  0.816250026      -1.10600965E-07
  0.817499995      -8.72596146E-08
  0.818750024      -5.55769262E-08
  0.819999993      -1.87980778E-08
  0.821250021       1.93509617E-08
  0.822499990       5.52644259E-08
  0.823750019       8.54567332E-08
  0.824999988       1.07451925E-07
  0.826250017       1.19855770E-07
  0.827499986       1.21754809E-07
  0.828750014       1.13389426E-07
  0.829999983       9.63221183E-08
  0.831250012       7.25961584E-08
  0.832499981       4.49038460E-08
  0.833750010       1.51923079E-08
  0.834999979      -1.29807693E-08
  0.836250007      -3.79086558E-08
  0.837499976      -5.72596157E-08
  0.838750005      -7.03846155E-08
  0.839999974      -7.68028841E-08
  0.841250002      -7.62019283E-08
  0.842499971      -7.02403895E-08
  0.843750000      -5.91105795E-08
  0.845000029      -4.55048088E-08
  0.846249998      -2.99759613E-08
  0.847500026      -1.46153853E-08
  0.848749995       3.60576929E-10
  0.850000024       1.39182692E-08
  0.851249993       2.45432705E-08
  0.852500021       3.26442304E-08
  0.853749990       3.81250018E-08
  0.855000019       4.03605789E-08
  0.856249988       4.07692333E-08
  0.857500017       3.75961555E-08
  0.858749986       3.24038467E-08
  0.860000014       2.49759626E-08
  0.861249983       1.64903859E-08
  0.862500012       5.67307712E-09
  0.863749981      -7.01923097E-09
  0.865000010      -2.10096154E-08
  0.866249979      -3.55048080E-08
  0.867500007      -5.07932718E-08
  0.868749976      -6.41586553E-08
  0.870000005      -7.61057706E-08