 -0.200000003       0.00000000    
 -0.198750004       0.00000000    
 -0.197500005       0.00000000    
 -0.196250007       0.00000000    
 -0.194999993       0.00000000    
 -0.193749994       0.00000000    
 -0.192499995       0.00000000    
 -0.191249996       0.00000000    
 -0.189999998       0.00000000    
 -0.188749999       0.00000000    
 -0.187500000       0.00000000    
 -0.186250001       0.00000000    
 -0.185000002       0.00000000    
 -0.183750004       0.00000000    
 -0.182500005       0.00000000    
 -0.181250006       0.00000000    
 -0.180000007       0.00000000    
 -0.178749993       0.00000000    
 -0.177499995       0.00000000    
 -0.176249996       0.00000000    
 -0.174999997       0.00000000    
 -0.173749998       0.00000000    
 -0.172499999       0.00000000    
 -0.171250001       0.00000000    
 -0.170000002       0.00000000    
 -0.168750003       0.00000000    
 -0.167500004       0.00000000    
 -0.166250005       0.00000000    
 -0.165000007       0.00000000    
 -0.163749993       0.00000000    
 -0.162499994       0.00000000    
 -0.161249995       0.00000000    
 -0.159999996       0.00000000    
 -0.158749998       0.00000000    
 -0.157499999       0.00000000    
 -0.156250000       0.00000000    
 -0.155000001       0.00000000    
 -0.153750002       0.00000000    
 -0.152500004       0.00000000    
 -0.151250005       0.00000000    
 -0.150000006       0.00000000    
 -0.148750007       0.00000000    
 -0.147499993       0.00000000    
 -0.146249995       0.00000000    
 -0.144999996       0.00000000    
 -0.143749997       0.00000000    
 -0.142499998       0.00000000    
 -0.141249999       0.00000000    
 -0.140000001       0.00000000    
 -0.138750002       0.00000000    
 -0.137500003       0.00000000    
 -0.136250004       0.00000000    
 -0.135000005       0.00000000    
 -0.133750007       0.00000000    
 -0.132499993       0.00000000    
 -0.131249994       0.00000000    
 -0.129999995       0.00000000    
 -0.128749996       0.00000000    
 -0.127499998       0.00000000    
 -0.126249999       0.00000000    
 -0.125000000       0.00000000    
 -0.123750001       0.00000000    
 -0.122500002       0.00000000    
 -0.121250004       0.00000000    
 -0.119999997       0.00000000    
 -0.118749999       0.00000000    
 -0.117500000       0.00000000    
 -0.116250001       0.00000000    
 -0.115000002       0.00000000    
 -0.113750003       0.00000000    
 -0.112499997       0.00000000    
 -0.111249998       0.00000000    
 -0.109999999       0.00000000    
 -0.108750001       0.00000000    
 -0.107500002       0.00000000    
 -0.106250003       0.00000000    
 -0.104999997       0.00000000    
 -0.103749998       0.00000000    
 -0.102499999       0.00000000    
 -0.101250000       0.00000000    
 -0.100000001       0.00000000    
  -9.87500027E-02   0.00000000    
  -9.74999964E-02   0.00000000    
  -9.62499976E-02   0.00000000    
  -9.49999988E-02   0.00000000    
  -9.37500000E-02   0.00000000    
  -9.25000012E-02   0.00000000    
  -9.12500024E-02   0.00000000    
  -9.00000036E-02   0.00000000    
  -8.87499973E-02   0.00000000    
  -8.74999985E-02   0.00000000    
  -8.62499997E-02   0.00000000    
  -8.50000009E-02   0.00000000    
  -8.37500021E-02   0.00000000    
  -8.25000033E-02   0.00000000    
  -8.12499970E-02   0.00000000    
  -7.99999982E-02   0.00000000    
  -7.87499994E-02   0.00000000    
  -7.75000006E-02   0.00000000    
  -7.62500018E-02   0.00000000    
  -7.50000030E-02   0.00000000    
  -7.37499967E-02   0.00000000    
  -7.24999979E-02   0.00000000    
  -7.12499991E-02   0.00000000    
  -7.00000003E-02   0.00000000    
  -6.87500015E-02   0.00000000    
  -6.75000027E-02   0.00000000    
  -6.62499964E-02   0.00000000    
  -6.49999976E-02   0.00000000    
  -6.37499988E-02   0.00000000    
  -6.25000000E-02   0.00000000    
  -6.12500012E-02   0.00000000    
  -5.99999987E-02   0.00000000    
  -5.87499999E-02   0.00000000    
  -5.75000010E-02   0.00000000    
  -5.62499985E-02   0.00000000    
  -5.49999997E-02   0.00000000    
  -5.37500009E-02   0.00000000    
  -5.24999984E-02   0.00000000    
  -5.12499996E-02   0.00000000    
  -5.00000007E-02   0.00000000    
  -4.87499982E-02   0.00000000    
  -4.74999994E-02   0.00000000    
  -4.62500006E-02   0.00000000    
  -4.50000018E-02   0.00000000    
  -4.37499993E-02   0.00000000    
  -4.25000004E-02   0.00000000    
  -4.12500016E-02   0.00000000    
  -3.99999991E-02   0.00000000    
  -3.87500003E-02   0.00000000    
  -3.75000015E-02   0.00000000    
  -3.62499990E-02   0.00000000    
  -3.50000001E-02   0.00000000    
  -3.37500013E-02   0.00000000    
  -3.24999988E-02   0.00000000    
  -3.12500000E-02   0.00000000    
  -2.99999993E-02   0.00000000    
  -2.87500005E-02   0.00000000    
  -2.74999999E-02   0.00000000    
  -2.62499992E-02   0.00000000    
  -2.50000004E-02   0.00000000    
  -2.37499997E-02   0.00000000    
  -2.25000009E-02   0.00000000    
  -2.12500002E-02   0.00000000    
  -1.99999996E-02   0.00000000    
  -1.87500007E-02   0.00000000    
  -1.75000001E-02   0.00000000    
  -1.62499994E-02   0.00000000    
  -1.49999997E-02   0.00000000    
  -1.37499999E-02   0.00000000    
  -1.25000002E-02   0.00000000    
  -1.12500004E-02   0.00000000    
  -9.99999978E-03   0.00000000    
  -8.75000004E-03   0.00000000    
  -7.49999983E-03   0.00000000    
  -6.25000009E-03   0.00000000    
  -4.99999989E-03   0.00000000    
  -3.74999992E-03   0.00000000    
  -2.49999994E-03   0.00000000    
  -1.24999997E-03   0.00000000    
   0.00000000       0.00000000    
   1.24999997E-03   0.00000000    
   2.49999994E-03   0.00000000    
   3.74999992E-03   0.00000000    
   4.99999989E-03   0.00000000    
   6.25000009E-03   0.00000000    
   7.49999983E-03   0.00000000    
   8.75000004E-03   0.00000000    
   9.99999978E-03   0.00000000    
   1.12500004E-02   0.00000000    
   1.25000002E-02   0.00000000    
   1.37499999E-02   0.00000000    
   1.49999997E-02   0.00000000    
   1.62499994E-02   0.00000000    
   1.75000001E-02   0.00000000    
   1.87500007E-02   0.00000000    
   1.99999996E-02   0.00000000    
   2.12500002E-02   0.00000000    
   2.25000009E-02   0.00000000    
   2.37499997E-02   0.00000000    
   2.50000004E-02   0.00000000    
   2.62499992E-02   0.00000000    
   2.74999999E-02   0.00000000    
   2.87500005E-02   0.00000000    
   2.99999993E-02   0.00000000    
   3.12500000E-02   0.00000000    
   3.24999988E-02   0.00000000    
   3.37500013E-02   0.00000000    
   3.50000001E-02   0.00000000    
   3.62499990E-02   0.00000000    
   3.75000015E-02   0.00000000    
   3.87500003E-02   0.00000000    
   3.99999991E-02   0.00000000    
   4.12500016E-02   1.40129846E-44
   4.25000004E-02   4.90454463E-44
   4.37499993E-02   9.10844002E-44
   4.50000018E-02   1.33123354E-43
   4.62500006E-02   1.75162308E-43
   4.74999994E-02   1.82168800E-43
   4.87499982E-02   1.26116862E-43
   5.00000007E-02   0.00000000    
   5.12499996E-02  -2.10194770E-43
   5.24999984E-02  -5.04467447E-43
   5.37500009E-02  -8.33772586E-43
   5.49999997E-02  -1.14205825E-42
   5.62499985E-02  -1.33403614E-42
   5.75000010E-02  -1.08320371E-42
   5.87499999E-02  -4.14784345E-43
   5.99999987E-02   5.77334967E-43
   6.12500012E-02   1.91837760E-42
   6.25000000E-02   3.71904612E-42
   6.37499988E-02   5.50990556E-42
   6.49999976E-02   5.97373535E-42
   6.62499964E-02   4.58644987E-42
   6.75000027E-02   1.09301280E-42
   6.87500015E-02  -4.27536161E-42
   7.00000003E-02  -1.16027513E-41
   7.12499991E-02  -2.07700458E-41
   7.24999979E-02  -2.91862444E-41
   7.37499967E-02  -3.39520605E-41
   7.50000030E-02  -3.24092309E-41
   7.62500018E-02  -2.18252236E-41
   7.75000006E-02  -1.19110369E-43
   7.87499994E-02   3.32345957E-41
   7.99999982E-02   7.47214380E-41
   8.12499970E-02   1.18493798E-40
   8.25000033E-02   1.54949979E-40
   8.37500021E-02   1.70945801E-40
   8.50000009E-02   1.53555687E-40
   8.62499997E-02   9.08391729E-41
   8.74999985E-02  -2.44246322E-41
   8.87499973E-02  -1.89018347E-40
   9.00000036E-02  -3.85362683E-40
   9.12500024E-02  -5.82032120E-40
   9.25000012E-02  -7.31546462E-40
   9.37500000E-02  -7.75230540E-40
   9.49999988E-02  -6.53631465E-40
   9.62499976E-02  -3.19731468E-40
   9.74999964E-02   2.42882859E-40
   9.87500027E-02   1.00379773E-39
  0.100000001       1.87121129E-39
  0.101250000       2.68718459E-39
  0.102499999       3.23555752E-39
  0.103749998       3.26887339E-39
  0.104999997       2.55302847E-39
  0.106250003       9.28789030E-40
  0.107500002      -1.61668504E-39
  0.108750001      -4.88567754E-39
  0.109999999      -8.42767381E-39
  0.111249998      -1.15380716E-38
  0.112499997      -1.33165155E-38
  0.113750003      -1.27950615E-38
  0.115000002      -9.13697606E-39
  0.116250001      -1.88479128E-39
  0.117500000       8.78114995E-39
  0.118749999       2.18245944E-38
  0.119999997       3.52475161E-38
  0.121250004       4.61643962E-38
  0.122500002       5.11110723E-38
  0.123750001       4.66073299E-38
  0.125000000       2.99446047E-38
  0.126249999       9.94613624E-41
  0.127499998      -4.13870194E-38
  0.128749996      -8.97735023E-38
  0.129999995      -1.36969627E-37
  0.131249994      -1.72094395E-37
  0.132499993      -1.82870784E-37
  0.133750007      -1.57848133E-37
  0.135000005      -8.92622301E-38
  0.136250004       2.38915531E-38
  0.137500003       1.73187374E-37
  0.138750002       3.39246802E-37
  0.140000001       4.92120999E-37
  0.141249999       5.94162387E-37
  0.142499998       6.05615368E-37
  0.143749997       4.92614928E-37
  0.144999996       2.36630927E-37
  0.146249995      -1.56267895E-37
  0.147499993      -6.48460886E-37
  0.148750007      -1.16847728E-36
  0.150000006      -1.61541974E-36
  0.151250005      -1.87133908E-36
  0.152500004      -1.82140102E-36
  0.153750002      -1.37985272E-36
  0.155000001      -5.17830229E-37
  0.156250000       7.12661521E-37
  0.157499999       2.16521410E-36
  0.158749998       3.60227030E-36
  0.159999996       4.71967296E-36
  0.161249995       5.19353981E-36
  0.162499994       4.74562509E-36
  0.163749993       3.21784225E-36
  0.165000007       6.41554525E-37
  0.166250005      -2.71603049E-36
  0.167500004      -6.34612479E-36
  0.168750003      -9.54689819E-36
  0.170000002      -1.15311634E-35
  0.171250001      -1.15853068E-35
  0.172499999      -9.25661265E-36
  0.173749998      -4.53191098E-36
  0.174999997       2.03922172E-36
  0.176249996       9.32472660E-36
  0.177499995       1.57314391E-35
  0.178749993       1.94818889E-35
  0.180000007       1.90259443E-35
  0.181250006       1.35250282E-35
  0.182500005       3.30641937E-36
  0.183750004      -9.84296148E-36
  0.185000002      -2.26784300E-35
  0.186250001      -3.09015826E-35
  0.187500000      -3.00065510E-35
  0.188749999      -1.65073386E-35
  0.189999998       1.06377425E-35
  0.191249996       4.87098514E-35
  0.192499995       9.04157079E-35
  0.193749994       1.23991603E-34
  0.194999993       1.34565152E-34
  0.196250007       1.06923758E-34
  0.197500005       2.95382072E-35
  0.198750004      -1.00688174E-34
  0.200000003      -2.73863942E-34
  0.201250002      -4.63978595E-34
  0.202500001      -6.28555059E-34
  0.203749999      -7.12290756E-34
  0.204999998      -6.55387784E-34
  0.206249997      -4.06411238E-34
  0.207499996       6.16313697E-35
  0.208749995       7.34561553E-34
  0.209999993       1.54335135E-33
  0.211250007       2.35787636E-33
  0.212500006       2.99239664E-33
  0.213750005       3.22596094E-33
  0.215000004       2.83869892E-33
  0.216250002       1.66172381E-33
  0.217500001      -3.65515629E-34
  0.218750000      -3.14046907E-33
  0.219999999      -6.35832755E-33
  0.221249998      -9.50265960E-33
  0.222499996      -1.18784615E-32
  0.223749995      -1.26954051E-32
  0.224999994      -1.12009169E-32
  0.226249993      -6.85191176E-33
  0.227500007       4.97948361E-34
  0.228750005       1.04296045E-32
  0.230000004       2.18499935E-32
  0.231250003       3.29858879E-32
  0.232500002       4.15150016E-32
  0.233750001       4.48519332E-32
  0.234999999       4.05802867E-32
  0.236249998       2.69897617E-32
  0.237499997       3.64289887E-33
  0.238749996      -2.81329123E-32
  0.239999995      -6.49491427E-32
  0.241249993      -1.01373833E-31
  0.242500007      -1.30354177E-31
  0.243750006      -1.44081589E-31
  0.245000005      -1.35260655E-31
  0.246250004      -9.86531753E-32
  0.247500002      -3.26783315E-32
  0.248750001       5.92224516E-32
  0.250000000       1.67783034E-31
  0.251249999       2.77981797E-31
  0.252499998       3.70209392E-31
  0.253749996       4.22613917E-31
  0.254999995       4.14501125E-31
  0.256249994       3.30435999E-31
  0.257499993       1.64469116E-31
  0.258749992      -7.62603194E-32
  0.259999990      -3.69366609E-31
  0.261249989      -6.77266383E-31
  0.262499988      -9.49978205E-31
  0.263749987      -1.13084738E-30
  0.264999986      -1.16487982E-30
  0.266250014      -1.00882148E-30
  0.267500013      -6.41600662E-31
  0.268750012      -7.33657763E-32
  0.270000011       6.48805502E-31
  0.271250010       1.44029364E-30
  0.272500008       2.18468315E-30
  0.273750007       2.74629015E-30
  0.275000006       2.98879934E-30
  0.276250005       2.79813227E-30
  0.277500004       2.10653760E-30
  0.278750002       9.14057354E-31
  0.280000001      -6.96816970E-31
  0.281250000      -2.55717417E-30
  0.282499999      -4.42123738E-30
  0.283749998      -5.99055807E-30
  0.284999996      -6.95173366E-30
  0.286249995      -7.02406512E-30
  0.287499994      -6.01125467E-30
  0.288749993      -3.84948896E-30
  0.289999992      -6.43447035E-31
  0.291249990       3.31778071E-30
  0.292499989       7.57104954E-30
  0.293749988       1.15188493E-29
  0.294999987       1.44972300E-29
  0.296249986       1.58662277E-29
  0.297500014       1.51125767E-29
  0.298750013       1.19508956E-29
  0.300000012       6.40756065E-30
  0.301250011      -1.12840038E-30
  0.302500010      -9.90050769E-30
  0.303750008      -1.88343159E-29
  0.305000007      -2.66425294E-29
  0.306250006      -3.19790526E-29
  0.307500005      -3.36270618E-29
  0.308750004      -3.06989682E-29
  0.310000002      -2.28210992E-29
  0.311250001      -1.02740132E-29
  0.312500000       5.93868134E-30
  0.313749999       2.41141836E-29
  0.314999998       4.19784026E-29
  0.316249996       5.69165502E-29
  0.317499995       6.62905689E-29
  0.318749994       6.78129683E-29
  0.319999993       5.99339408E-29
  0.321249992       4.21895538E-29
  0.322499990       1.54552974E-29
  0.323749989      -1.79474703E-29
  0.324999988      -5.43335712E-29
  0.326249987      -8.89473050E-29
  0.327499986      -1.16464282E-28
  0.328750014      -1.31668993E-28
  0.330000013      -1.30243408E-28
  0.331250012      -1.09572606E-28
  0.332500011      -6.94512727E-29
  0.333750010      -1.25648392E-29
  0.335000008       5.53743077E-29
  0.336250007       1.25928723E-28
  0.337500006       1.88722020E-28
  0.338750005       2.32689652E-28
  0.340000004       2.47696426E-28
  0.341250002       2.26341089E-28
  0.342500001       1.65696167E-28
  0.343750000       6.86829590E-29
  0.344999999      -5.52280032E-29
  0.346249998      -1.90260296E-28
  0.347499996      -3.15691407E-28
  0.348749995      -4.08351122E-28
  0.349999994      -4.46089479E-28
  0.351249993      -4.11835852E-28
  0.352499992      -2.97677534E-28
  0.353749990      -1.08245231E-28
  0.354999989       1.37353063E-28
  0.356249988       4.05732724E-28
  0.357499987       6.52031720E-28
  0.358749986       8.25418041E-28
  0.360000014       8.76953133E-28
  0.361250013       7.68952375E-28
  0.362500012       4.84507496E-28
  0.363750011       3.54891653E-29
  0.365000010      -5.32776741E-28
  0.366250008      -1.14179431E-27
  0.367500007      -1.68626780E-27
  0.368750006      -2.04685061E-27
  0.370000005      -2.10848364E-27
  0.371250004      -1.78234705E-27
  0.372500002      -1.02833672E-27
  0.373750001       1.25829670E-28
  0.375000000       1.57307156E-27
  0.376249999       3.12678155E-27
  0.377499998       4.53470182E-27
  0.378749996       5.50762770E-27
  0.379999995       5.76129925E-27
  0.381249994       5.06716290E-27
  0.382499993       3.30518429E-27
  0.383749992       5.10046242E-28
  0.384999990      -3.09867895E-27
  0.386249989      -7.11106337E-27
  0.387499988      -1.09523676E-26
  0.388749987      -1.39419640E-26
  0.389999986      -1.53828400E-26
  0.391250014      -1.46731765E-26
  0.392500013      -1.14260570E-26
  0.393750012      -5.57921567E-27
  0.395000011       2.52523389E-27
  0.396250010       1.21101219E-26
  0.397500008       2.19963140E-26
  0.398750007       3.07067250E-26
  0.400000006       3.66382719E-26
  0.401250005       3.82873640E-26
  0.402500004       3.45032846E-26
  0.403750002       2.47348153E-26
  0.405000001       9.23034590E-27
  0.406250000      -1.08479268E-26
  0.407499999      -3.34284955E-26
  0.408749998      -5.56737166E-26
  0.409999996      -7.42636306E-26
  0.411249995      -8.58012760E-26
  0.412499994      -8.72987929E-26
  0.413749993      -7.66851008E-26
  0.414999992      -5.32634877E-26
  0.416249990      -1.80440469E-26
  0.417499989       2.61169628E-26
  0.418749988       7.46203190E-26
  0.419999987       1.21491112E-25
  0.421249986       1.59996559E-25
  0.422500014       1.83463199E-25
  0.423750013       1.86207116E-25
  0.425000012       1.64463521E-25
  0.426250011       1.17187334E-25
  0.427500010       4.65977240E-26
  0.428750008      -4.16413726E-26
  0.430000007      -1.38676632E-25
  0.431250006      -2.33178828E-25
  0.432500005      -3.12478528E-25
  0.433750004      -3.64028246E-25
  0.435000002      -3.77041715E-25
  0.436250001      -3.44121194E-25
  0.437500000      -2.62663786E-25
  0.438749999      -1.35842008E-25
  0.439999998       2.70158637E-26
  0.441249996       2.10765391E-25
  0.442499995       3.95550709E-25
  0.443749994       5.58631702E-25
  0.444999993       6.76799713E-25
  0.446249992       7.29161342E-25
  0.447499990       7.00001937E-25
  0.448749989       5.81395418E-25
  0.449999988       3.75216636E-25
  0.451249987       9.42399492E-26
  0.452499986      -2.37926661E-25
  0.453750014      -5.88219409E-25
  0.455000013      -9.16822230E-25
  0.456250012      -1.18105563E-24
  0.457500011      -1.34015152E-24
  0.458750010      -1.36046449E-24
  0.460000008      -1.22055261E-24
  0.461250007      -9.15489449E-25
  0.462500006      -4.59765096E-25
  0.463750005       1.11791895E-25
  0.465000004       7.45481740E-25
  0.466250002       1.37276579E-24
  0.467500001       1.91673873E-24
  0.468750000       2.30058168E-24
  0.469999999       2.45720528E-24
  0.471249998       2.33900789E-24
  0.472499996       1.92649023E-24
  0.473749995       1.23441911E-24
  0.474999994       3.14362673E-25
  0.476249993      -7.47263727E-25
  0.477499992      -1.83601755E-24
  0.478749990      -2.82086621E-24
  0.479999989      -3.56930766E-24
  0.481249988      -3.96458259E-24
  0.482499987      -3.92285461E-24
  0.483749986      -3.40794380E-24
  0.485000014      -2.44121349E-24
  0.486250013      -1.10459223E-24
  0.487500012       4.64541254E-25
  0.488750011       2.08684298E-24
  0.490000010       3.56186239E-24
  0.491250008       4.69403477E-24
  0.492500007       5.32050117E-24
  0.493750006       5.33676314E-24
  0.495000005       4.71601757E-24
  0.496250004       3.51851685E-24
  0.497500002       1.88843992E-24
  0.498750001       3.74632910E-26
  0.500000000      -1.78371528E-24
  0.501250029      -3.32252633E-24
  0.502499998      -4.36513263E-24
  0.503750026      -4.77405209E-24
  0.504999995      -4.51608077E-24
  0.506250024      -3.67460403E-24
  0.507499993      -2.44233210E-24
  0.508750021      -1.09338103E-24
  0.509999990       6.28965887E-26
  0.511250019       7.40361835E-25
  0.512499988       7.37819435E-25
  0.513750017      -6.88320121E-27
  0.514999986      -1.38157589E-24
  0.516250014      -3.09284297E-24
  0.517499983      -4.69341789E-24
  0.518750012      -5.64466896E-24
  0.519999981      -5.40879758E-24
  0.521250010      -3.55917514E-24
  0.522499979       1.07951251E-25
  0.523750007       5.48028179E-24
  0.524999976       1.20749377E-23
  0.526250005       1.90395256E-23
  0.527499974       2.52191164E-23
  0.528750002       2.92900709E-23
  0.529999971       2.99504706E-23
  0.531250000       2.61457250E-23
  0.532500029       1.72983770E-23
  0.533749998       3.50517209E-24
  0.535000026      -1.43364299E-23
  0.536249995      -3.45051105E-23
  0.537500024      -5.45576013E-23
  0.538749993      -7.15611194E-23
  0.540000021      -8.24422313E-23
  0.541249990      -8.44178419E-23
  0.542500019      -7.54561485E-23
  0.543749988      -5.47029726E-23
  0.545000017      -2.28046435E-23
  0.546249986       1.79357451E-23
  0.547500014       6.36160532E-23
  0.548749983       1.09029021E-22
  0.550000012       1.48182990E-22
  0.551249981       1.75006015E-22
  0.552500010       1.84157647E-22
  0.553749979       1.71848312E-22
  0.555000007       1.36552807E-22
  0.556249976       7.95062614E-23
  0.557500005       4.88898360E-24
  0.558749974      -8.03602002E-23
  0.560000002      -1.67117507E-22
  0.561249971      -2.44997983E-22
  0.562500000      -3.03541307E-22
  0.563750029      -3.33527437E-22
  0.564999998      -3.28259866E-22
  0.566250026      -2.84645046E-22
  0.567499995      -2.03909096E-22
  0.568750024      -9.18287610E-23
  0.569999993       4.15908674E-23
  0.571250021       1.82991383E-22
  0.572499990       3.17015379E-22
  0.573750019       4.27999223E-22
  0.574999988       5.01810704E-22
  0.576250017       5.27608197E-22
  0.577499986       4.99297153E-22
  0.578750014       4.16487458E-22
  0.579999983       2.84811351E-22
  0.581250012       1.15538108E-22
  0.582499981      -7.54909215E-23
  0.583750010      -2.69495711E-22
  0.584999979      -4.46772951E-22
  0.586250007      -5.88854550E-22
  0.587499976      -6.80548915E-22
  0.588750005      -7.11615645E-22
  0.589999974      -6.77870423E-22
  0.591250002      -5.81588245E-22
  0.592499971      -4.31164310E-22
  0.593750000      -2.40087179E-22
  0.595000029      -2.53668874E-23
  0.596249998       1.94369306E-22
  0.597500026       4.00862812E-22
  0.598749995       5.78034862E-22
  0.600000024       7.13397588E-22
  0.601249993       7.98902436E-22
  0.602500021       8.31148444E-22
  0.603749990       8.10968600E-22
  0.605000019       7.42506429E-22
  0.606249988       6.31972551E-22
  0.607500017       4.86320303E-22
  0.608749986       3.12094074E-22
  0.610000014       1.14679512E-22
  0.611249983      -1.01878029E-22
  0.612500012      -3.34413158E-22
  0.613749981      -5.79576991E-22
  0.615000010      -8.32327570E-22
  0.616249979      -1.08423749E-21
  0.617500007      -1.32196255E-21
  0.618749976      -1.52625385E-21
  0.620000005      -1.67188156E-21
  0.621249974      -1.72876749E-21
  0.622500002      -1.66449348E-21
  0.623749971      -1.44817343E-21
  0.625000000      -1.05546429E-21
  0.626250029      -4.74261510E-22
  0.627499998       2.89585941E-22
  0.628750026       1.20737300E-21
  0.629999995       2.22436723E-21
  0.631250024       3.25926852E-21
  0.632499993       4.20705352E-21
  0.633750021       4.94567330E-21
  0.634999990       5.34666122E-21
  0.636250019       5.28919277E-21
  0.637499988       4.67657061E-21
  0.638750017       3.45355055E-21
  0.639999986       1.62245217E-21
  0.641250014      -7.44293167E-22
  0.642499983      -3.49755712E-21
  0.643750012      -6.41301133E-21
  0.644999981      -9.20222518E-21
  0.646250010      -1.15339407E-20
  0.647499979      -1.30648840E-20
  0.648750007      -1.34781076E-20
  0.649999976      -1.25254976E-20
  0.651250005      -1.00698674E-20
  0.652499974      -6.12128274E-21
  0.653750002      -8.62000756E-22
  0.654999971       5.34512480E-21
  0.656250000       1.19687057E-20
  0.657500029       1.83433295E-20
  0.658749998       2.37259423E-20
  0.660000026       2.73706665E-20
  0.661249995       2.86156703E-20
  0.662500024       2.69731820E-20
  0.663749993       2.22120193E-20
  0.665000021       1.44213059E-20
  0.666249990       4.04484776E-21
  0.667500019      -8.12216883E-21
  0.668749988      -2.09788658E-20
  0.670000017      -3.32067392E-20
  0.671249986      -4.33947609E-20
  0.672500014      -5.01908413E-20
  0.673749983      -5.24643601E-20
  0.675000012      -4.94612615E-20
  0.676249981      -4.09320245E-20
  0.677500010      -2.72139901E-20
  0.678749979      -9.25325996E-21
  0.680000007       1.14426616E-20
  0.681249976       3.29225477E-20
  0.682500005       5.29718645E-20
  0.683749974       6.93398689E-20
  0.685000002       7.99901165E-20
  0.686249971       8.33461692E-20
  0.687500000       7.85026648E-20
  0.688750029       6.53738997E-20
  0.689999998       4.47577381E-20
  0.691250026       1.83016861E-20
  0.692499995      -1.16307935E-20
  0.693750024      -4.21833775E-20
  0.694999993      -7.02973046E-20
  0.696250021      -9.30376047E-20
  0.697499990      -1.07917576E-19
  0.698750019      -1.13182606E-19
  0.699999988      -1.08017981E-19
  0.701250017      -9.26538575E-20
  0.702499986      -6.83526224E-20
  0.703750014      -3.72786230E-20
  0.704999983      -2.26521916E-21
  0.706250012       3.34923524E-20
  0.707499981       6.67800292E-20
  0.708750010       9.47007289E-20
  0.709999979       1.14960877E-19
  0.711250007       1.26072665E-19
  0.712499976       1.27449223E-19
  0.713750005       1.19385375E-19
  0.714999974       1.02933541E-19
  0.716250002       7.96996340E-20
  0.717499971       5.15955555E-20
  0.718750000       2.05907081E-20
  0.720000029      -1.14960116E-20
  0.721249998      -4.31302731E-20
  0.722500026      -7.31030624E-20
  0.723749995      -1.00476653E-19
  0.725000024      -1.24453666E-19
  0.726249993      -1.44203818E-19
  0.727500021      -1.58694988E-19
  0.728749990      -1.66579247E-19
  0.730000019      -1.66179318E-19
  0.731249988      -1.55606580E-19
  0.732500017      -1.33019418E-19
  0.733749986      -9.70039939E-20
  0.735000014      -4.70314055E-20
  0.736249983       1.60787561E-20
  0.737500012       8.97739700E-20
  0.738749981       1.69552819E-19
  0.740000010       2.48995943E-19
  0.741249979       3.20097261E-19
  0.742500007       3.73910762E-19
  0.743749976       4.01481856E-19
  0.745000005       3.94983576E-19
  0.746249974       3.48933398E-19
  0.747500002       2.61333808E-19
  0.748749971       1.34565639E-19
  0.750000000      -2.41294158E-20
  0.751250029      -2.02708118E-19
  0.752499998      -3.85003099E-19
  0.753750026      -5.52022032E-19
  0.754999995      -6.83789370E-19
  0.756250024      -7.61570146E-19
  0.757499993      -7.70243289E-19
  0.758750021      -7.00544948E-19
  0.759999990      -5.50884348E-19
  0.761250019      -3.28454344E-19
  0.762499988      -4.94167812E-20
  0.763750017       2.61964869E-19
  0.764999986       5.75255467E-19
  0.766250014       8.56718664E-19
  0.767499983       1.07287714E-18
  0.768750012       1.19440062E-18
  0.769999981       1.19988452E-18
  0.771250010       1.07905411E-18
  0.772499979       8.34953836E-19
  0.773750007       4.84766820E-19
  0.774999976       5.90424267E-20
  0.776250005      -4.00716300E-19
  0.777499974      -8.45959784E-19
  0.778750002      -1.22615443E-18
  0.779999971      -1.49449420E-18
  0.781250000      -1.61363416E-18
  0.782500029      -1.56076336E-18
  0.783749998      -1.33135991E-18
  0.785000026      -9.41073974E-19
  0.786249995      -4.25364628E-19
  0.787500024       1.63243784E-19
  0.788749993       7.60146154E-19
  0.790000021       1.29546234E-18
  0.791249990       1.70199339E-18
  0.792500019       1.92346438E-18
  0.793749988       1.92209002E-18
  0.795000017       1.68449862E-18
  0.796249986       1.22517422E-18
  0.797500014       5.86803167E-19
  0.798749983      -1.62764962E-19
  0.800000012      -9.36850079E-19
  0.801249981      -1.63907245E-18
  0.802500010      -2.17440906E-18
  0.803749979      -2.46100025E-18
  0.805000007      -2.44134107E-18
  0.806249976      -2.09145380E-18
  0.807500005      -1.42676062E-18
  0.808749974      -5.03664278E-19
  0.810000002       5.83723987E-19
  0.811249971       1.71173695E-18
  0.812500000       2.73962426E-18
  0.813750029       3.52522291E-18
  0.814999998       3.94221914E-18
  0.816250026       3.89706914E-18
  0.817499995       3.34351863E-18
  0.818750024       2.29276847E-18
  0.819999993       8.17690059E-19
  0.821250021      -9.49935353E-19
  0.822499990      -2.82943601E-18
  0.823750019      -4.60797214E-18
  0.824999988      -6.06256263E-18
  0.826250017      -6.98527558E-18
  0.827499986      -7.20889227E-18
  0.828750014      -6.63008257E-18
  0.829999983      -5.22718177E-18
  0.831250012      -3.07006906E-18
  0.832499981      -3.20383259E-19
  0.833750010       2.77870358E-18
  0.834999979       5.92276911E-18
  0.836250007       8.77490316E-18
  0.837499976       1.10002796E-17
  0.838750005       1.23030336E-17
  0.839999974       1.24614263E-17
  0.841250002       1.13572518E-17
  0.842499971       8.99584559E-18
  0.843750000       5.51391896E-18
  0.845000029       1.17368936E-18
  0.846249998      -3.65676655E-18
  0.847500026      -8.53544927E-18
  0.848749995      -1.29877390E-17
  0.850000024      -1.65529792E-17
  0.851249993      -1.88315260E-17
  0.852500021      -1.95272577E-17
  0.853749990      -1.84809007E-17
  0.855000019      -1.56904697E-17
  0.856249988      -1.13164603E-17
  0.857500017      -5.67107583E-18
  0.858749986       8.07471122E-19
  0.860000014       7.59295223E-18
  0.861249983       1.41174634E-17
  0.862500012       1.98213568E-17
  0.863749981       2.42017513E-17
  0.865000010       2.68549546E-17
  0.866249979       2.75090129E-17
  0.867500007       2.60439007E-17
  0.868749976       2.24983498E-17
  0.870000005       1.70638410E-17