 -0.200000003       0.00000000    
 -0.198750004       0.00000000    
 -0.197500005       0.00000000    
 -0.196250007       0.00000000    
 -0.194999993       0.00000000    
 -0.193749994       0.00000000    
 -0.192499995       0.00000000    
 -0.191249996       0.00000000    
 -0.189999998       0.00000000    
 -0.188749999       5.87519825E-35
 -0.187500000       1.04183486E-33
 -0.186250001       9.59144248E-33
 -0.185000002       6.08785586E-32
 -0.183750004       2.98511524E-31
 -0.182500005       1.20127125E-30
 -0.181250006       4.11505401E-30
 -0.180000007       1.22842981E-29
 -0.178749993       3.24438999E-29
 -0.177499995       7.64873929E-29
 -0.176249996       1.61473818E-28
 -0.174999997       3.04122683E-28
 -0.173749998       5.03350458E-28
 -0.172499999       7.02735340E-28
 -0.171250001       7.26890306E-28
 -0.170000002       1.95649782E-28
 -0.168750003      -1.55829399E-27
 -0.167500004      -5.50809609E-27
 -0.166250005      -1.27863313E-26
 -0.165000007      -2.42416663E-26
 -0.163749993      -3.95786215E-26
 -0.162499994      -5.60548289E-26
 -0.161249995      -6.69239147E-26
 -0.159999996      -6.01544897E-26
 -0.158749998      -1.83776503E-26
 -0.157499999       7.86191227E-26
 -0.156250000       2.47455337E-25
 -0.155000001       4.89889032E-25
 -0.153750002       7.77198879E-25
 -0.152500004       1.03305586E-24
 -0.151250005       1.12084897E-24
 -0.150000006       8.44604381E-25
 -0.148750007      -2.54157672E-26
 -0.147499993      -1.69235513E-24
 -0.146249995      -4.23330609E-24
 -0.144999996      -7.46805863E-24
 -0.143749997      -1.08206078E-23
 -0.142499998      -1.32182338E-23
 -0.141249999      -1.30908509E-23
 -0.140000001      -8.54084714E-24
 -0.138750002       2.25833167E-24
 -0.137500003       2.04161257E-23
 -0.136250004       4.54828231E-23
 -0.135000005       7.45588287E-23
 -0.133750007       1.01607298E-22
 -0.132499993       1.17307138E-22
 -0.131249994       1.09810890E-22
 -0.129999995       6.67020834E-23
 -0.128749996      -2.17504902E-23
 -0.127499998      -1.58275234E-22
 -0.126249999      -3.33884103E-22
 -0.125000000      -5.23890681E-22
 -0.123750001      -6.86153083E-22
 -0.122500002      -7.63158126E-22
 -0.121250004      -6.89291563E-22
 -0.119999997      -4.03872676E-22
 -0.118749999       1.30745011E-22
 -0.117500000       9.08370025E-22
 -0.116250001       1.85959855E-21
 -0.115000002       2.83945800E-21
 -0.113750003       3.62828074E-21
 -0.112499997       3.95132102E-21
 -0.111249998       3.52023754E-21
 -0.109999999       2.09545226E-21
 -0.108750001      -4.37093464E-22
 -0.107500002      -3.98728601E-21
 -0.106250003      -8.19805296E-21
 -0.104999997      -1.24191774E-20
 -0.103749998      -1.57375829E-20
 -0.102499999      -1.70781260E-20
 -0.101250000      -1.53778320E-20
 -0.100000001      -9.82088438E-21
  -9.87500027E-02  -1.03713910E-22
  -9.74999964E-02   1.33174560E-20
  -9.62499976E-02   2.90561407E-20
  -9.49999988E-02   4.47642489E-20
  -9.37500000E-02   5.72915503E-20
  -9.25000012E-02   6.30631642E-20
  -9.12500024E-02   5.86641919E-20
  -9.00000036E-02   4.15742301E-20
  -8.87499973E-02   1.09463654E-20
  -8.74999985E-02  -3.17141952E-20
  -8.62499997E-02  -8.21370186E-20
  -8.50000009E-02  -1.33296059E-19
  -8.37500021E-02  -1.75956878E-19
  -8.25000033E-02  -1.99800268E-19
  -8.12499970E-02  -1.95057228E-19
  -7.99999982E-02  -1.54473989E-19
  -7.87499994E-02  -7.53168433E-20
  -7.75000006E-02   3.89523874E-20
  -7.62500018E-02   1.77724291E-19
  -7.50000030E-02   3.23362660E-19
  -7.37499967E-02   4.52626459E-19
  -7.24999979E-02   5.39430172E-19
  -7.12499991E-02   5.58740083E-19
  -7.00000003E-02   4.91154567E-19
  -6.87500015E-02   3.27495952E-19
  -6.75000027E-02   7.26040851E-20
  -6.62499964E-02  -2.52497347E-19
  -6.49999976E-02  -6.10761678E-19
  -6.37499988E-02  -9.52029774E-19
  -6.25000000E-02  -1.21870825E-18
  -6.12500012E-02  -1.35375717E-18
  -5.99999987E-02  -1.31004864E-18
  -5.87499999E-02  -1.05976333E-18
  -5.75000010E-02  -6.02265396E-19
  -5.62499985E-02   3.10987825E-20
  -5.49999997E-02   7.76557728E-19
  -5.37500009E-02   1.54257583E-18
  -5.24999984E-02   2.21962937E-18
  -5.12499996E-02   2.69426664E-18
  -5.00000007E-02   2.86580508E-18
  -4.87499982E-02   2.66337020E-18
  -4.74999994E-02   2.06062395E-18
  -4.62500006E-02   1.08558119E-18
  -4.50000018E-02  -1.76619863E-19
  -4.37499993E-02  -1.58924536E-18
  -4.25000004E-02  -2.97786468E-18
  -4.12500016E-02  -4.15137961E-18
  -3.99999991E-02  -4.92769027E-18
  -3.87500003E-02  -5.16053872E-18
  -3.75000015E-02  -4.76356027E-18
  -3.62499990E-02  -3.72766462E-18
  -3.50000001E-02  -2.12857539E-18
  -3.37500013E-02  -1.22650839E-19
  -3.24999988E-02   2.06922642E-18
  -3.12500000E-02   4.18804936E-18
  -2.99999993E-02   5.97002883E-18
  -2.87500005E-02   7.18224630E-18
  -2.74999999E-02   7.65534977E-18
  -2.62499992E-02   7.30821516E-18
  -2.50000004E-02   6.16051447E-18
  -2.37499997E-02   4.33086416E-18
  -2.25000009E-02   2.02044862E-18
  -2.12500002E-02  -5.15631875E-19
  -1.99999996E-02  -3.00493685E-18
  -1.87500007E-02  -5.19634861E-18
  -1.75000001E-02  -6.89441351E-18
  -1.62499994E-02  -7.98346006E-18
  -1.49999997E-02  -8.43714464E-18
  -1.37499999E-02  -8.31150004E-18
  -1.25000002E-02  -7.72250278E-18
  -1.12500004E-02  -6.81211565E-18
  -9.99999978E-03  -5.70925394E-18
  -8.75000004E-03  -4.49361939E-18
  -7.49999983E-03  -3.17053407E-18
  -6.25000009E-03  -1.66359897E-18
  -4.99999989E-03   1.70720915E-19
  -3.74999992E-03   2.50628508E-18
  -2.49999994E-03   5.49230970E-18
  -1.24999997E-03   9.18853152E-18
   0.00000000       1.35021163E-17
   1.24999997E-03   1.81396804E-17
   2.49999994E-03   2.25874719E-17
   3.74999992E-03   2.61301177E-17
   4.99999989E-03   2.79134645E-17
   6.25000009E-03   2.70505249E-17
   7.49999983E-03   2.27619954E-17
   8.75000004E-03   1.45355006E-17
   9.99999978E-03   2.28163482E-18
   1.12500004E-02  -1.35387256E-17
   1.25000002E-02  -3.18416791E-17
   1.37499999E-02  -5.09243586E-17
   1.49999997E-02  -6.85606004E-17
   1.62499994E-02  -8.21921531E-17
   1.75000001E-02  -8.92061748E-17
   1.87500007E-02  -8.72760183E-17
   1.99999996E-02  -7.47292832E-17
   2.12500002E-02  -5.08975878E-17
   2.25000009E-02  -1.63973138E-17
   2.37499997E-02   2.67079696E-17
   2.50000004E-02   7.49048374E-17
   2.62499992E-02   1.23413680E-16
   2.74999999E-02   1.66564887E-16
   2.87500005E-02   1.98349560E-16
   2.99999993E-02   2.13101565E-16
   3.12500000E-02   2.06244754E-16
   3.24999988E-02   1.75020975E-16
   3.37500013E-02   1.19105604E-16
   3.50000001E-02   4.10179080E-17
   3.62499990E-02  -5.37532634E-17
   3.75000015E-02  -1.56963384E-16
   3.87500003E-02  -2.58186310E-16
   3.99999991E-02  -3.45727509E-16
   4.12500016E-02  -4.07811450E-16
   4.25000004E-02  -4.33936699E-16
   4.37499993E-02  -4.16258539E-16
   4.50000018E-02  -3.50839247E-16
   4.62500006E-02  -2.38601426E-16
   4.74999994E-02  -8.58370483E-17
   4.87499982E-02   9.58408515E-17
   5.00000007E-02   2.90163259E-16
   5.12499996E-02   4.77481102E-16
   5.24999984E-02   6.36573794E-16
   5.37500009E-02   7.46841602E-16
   5.49999997E-02   7.90672063E-16
   5.62499985E-02   7.55729625E-16
   5.75000010E-02   6.36899108E-16
   5.87499999E-02   4.37626931E-16
   5.99999987E-02   1.70447249E-16
   6.12500012E-02  -1.43448100E-16
   6.25000000E-02  -4.75641505E-16
   6.37499988E-02  -7.92860214E-16
   6.49999976E-02  -1.06011054E-15
   6.62499964E-02  -1.24429849E-15
   6.75000027E-02  -1.31798125E-15
   6.87500015E-02  -1.26284566E-15
   7.00000003E-02  -1.07250846E-15
   7.12499991E-02  -7.54271405E-16
   7.24999979E-02  -3.29549947E-16
   7.37499967E-02   1.67181487E-16
   7.50000030E-02   6.90935628E-16
   7.62500018E-02   1.19009336E-15
   7.75000006E-02   1.61130643E-15
   7.87499994E-02   1.90497202E-15
   7.99999982E-02   2.03073439E-15
   8.12499970E-02   1.96242457E-15
   8.25000033E-02   1.69186975E-15
   8.37500021E-02   1.23108065E-15
   8.50000009E-02   6.12473960E-16
   8.62499997E-02  -1.13034720E-16
   8.74999985E-02  -8.80007781E-16
   8.87499973E-02  -1.61425030E-15
   9.00000036E-02  -2.23986979E-15
   9.12500024E-02  -2.68697147E-15
   9.25000012E-02  -2.89921590E-15
   9.37500000E-02  -2.84043944E-15
   9.49999988E-02  -2.49958618E-15
   9.62499976E-02  -1.89333315E-15
   9.74999964E-02  -1.06600579E-15
   9.87500027E-02  -8.66362702E-17
  0.100000001       9.56682315E-16
  0.101250000       1.96470351E-15
  0.102499999       2.83649184E-15
  0.103749998       3.47954062E-15
  0.104999997       3.81952270E-15
  0.106250003       3.80865019E-15
  0.107500002       3.43170719E-15
  0.108750001       2.70903181E-15
  0.109999999       1.69600062E-15
  0.111249998       4.78928522E-16
  0.112499997      -8.32345290E-16
  0.113750003      -2.11454554E-15
  0.115000002      -3.24278390E-15
  0.116250001      -4.10296449E-15
  0.117500000      -4.60350845E-15
  0.118749999      -4.68517767E-15
  0.119999997      -4.32792035E-15
  0.121250004      -3.55395077E-15
  0.122500002      -2.42664584E-15
  0.123750001      -1.04525930E-15
  0.125000000       4.64100046E-16
  0.126249999       1.96038703E-15
  0.127499998       3.30126898E-15
  0.128749996       4.35713706E-15
  0.129999995       5.02405438E-15
  0.131249994       5.23429431E-15
  0.132499993       4.96336362E-15
  0.133750007       4.23275620E-15
  0.135000005       3.10812260E-15
  0.136250004       1.69301568E-15
  0.137500003       1.18840549E-16
  0.138750002      -1.46796834E-15
  0.140000001      -2.92022740E-15
  0.141249999      -4.10427612E-15
  0.142499998      -4.91278432E-15
  0.143749997      -5.27480027E-15
  0.144999996      -5.16205468E-15
  0.146249995      -4.59093043E-15
  0.147499993      -3.61999224E-15
  0.148750007      -2.34341829E-15
  0.150000006      -8.81124012E-16
  0.151250005       6.33322670E-16
  0.152500004       2.06568085E-15
  0.153750002       3.29355505E-15
  0.155000001       4.21719790E-15
  0.156250000       4.76757619E-15
  0.157499999       4.91103350E-15
  0.158749998       4.65028034E-15
  0.159999996       4.02185685E-15
  0.161249995       3.09060215E-15
  0.162499994       1.94194416E-15
  0.163749993       6.73010611E-16
  0.165000007      -6.16397522E-16
  0.166250005      -1.83201622E-15
  0.167500004      -2.89175672E-15
  0.168750003      -3.73030388E-15
  0.170000002      -4.30152299E-15
  0.171250001      -4.57883268E-15
  0.172499999      -4.55397015E-15
  0.173749998      -4.23472640E-15
  0.174999997      -3.64229927E-15
  0.176249996      -2.80884278E-15
  0.177499995      -1.77563083E-15
  0.178749993      -5.92013720E-16
  0.180000007       6.84922753E-16
  0.181250006       1.99034214E-15
  0.182500005       3.25181920E-15
  0.183750004       4.39030390E-15
  0.185000002       5.32246705E-15
  0.186250001       5.96484117E-15
  0.187500000       6.23987912E-15
  0.188749999       6.08368158E-15
  0.189999998       5.45475454E-15
  0.191249996       4.34280102E-15
  0.192499995       2.77628220E-15
  0.193749994       8.27385806E-16
  0.194999993      -1.38686928E-15
  0.196250007      -3.70837758E-15
  0.197500005      -5.94703018E-15
  0.198750004      -7.89499590E-15
  0.200000003      -9.34535008E-15
  0.201250002      -1.01134963E-14
  0.202500001      -1.00592413E-14
  0.203749999      -9.10699586E-15
  0.204999998      -7.26145760E-15
  0.206249997      -4.61635879E-15
  0.207499996      -1.35439901E-15
  0.208749995       2.26267170E-15
  0.209999993       5.91377906E-15
  0.211250007       9.24684777E-15
  0.212500006       1.19133541E-14
  0.213750005       1.36057716E-14
  0.215000004       1.40938888E-14
  0.216250002       1.32557505E-14
  0.217500001       1.10991987E-14
  0.218750000       7.77074971E-15
  0.219999999       3.54972513E-15
  0.221249998      -1.17287551E-15
  0.222499996      -5.92956690E-15
  0.223749995      -1.02226806E-14
  0.224999994      -1.35773257E-14
  0.226249993      -1.55954317E-14
  0.227500007      -1.60047672E-14
  0.228750005      -1.46969635E-14
  0.230000004      -1.17494337E-14
  0.231250003      -7.42757093E-15
  0.232500002      -2.16565593E-15
  0.233750001       3.47272963E-15
  0.234999999       8.85156884E-15
  0.236249998       1.33311339E-14
  0.237499997       1.63413984E-14
  0.238749996       1.74519941E-14
  0.239999995       1.64304283E-14
  0.241249993       1.32810946E-14
  0.242500007       8.25940472E-15
  0.243750006       1.85783993E-15
  0.245000005      -5.23622512E-15
  0.246250004      -1.22078352E-14
  0.247500002      -1.82007289E-14
  0.248750001      -2.24138623E-14
  0.250000000      -2.41977764E-14
  0.251249999      -2.31397458E-14
  0.252499998      -1.91273473E-14
  0.253749996      -1.23818700E-14
  0.254999995      -3.45593339E-15
  0.256249994       6.80658948E-15
  0.257499993       1.73460845E-14
  0.258749992       2.69917738E-14
  0.259999990       3.45853378E-14
  0.261249989       3.91108790E-14
  0.262499988       3.98170978E-14
  0.263749987       3.63176354E-14
  0.264999986       2.86572320E-14
  0.266250014       1.73344920E-14
  0.267500013       3.27631772E-15
  0.268750012      -1.22357950E-14
  0.270000011      -2.76821141E-14
  0.271250010      -4.14532334E-14
  0.272500008      -5.20163644E-14
  0.273750007      -5.80822079E-14
  0.275000006      -5.87544268E-14
  0.276250005      -5.36447616E-14
  0.277500004      -4.29398135E-14
  0.278750002      -2.74100760E-14
  0.280000001      -8.35766901E-15
  0.281250000       1.24943484E-14
  0.282499999       3.31618007E-14
  0.283749998       5.15934443E-14
  0.284999996       6.58800610E-14
  0.286249995       7.44570828E-14
  0.287499994       7.62790642E-14
  0.288749993       7.09466326E-14
  0.289999992       5.87707847E-14
  0.291249990       4.07655849E-14
  0.292499989       1.85676754E-14
  0.293749988      -5.71152114E-15
  0.294999987      -2.96874850E-14
  0.296249986      -5.09387488E-14
  0.297500014      -6.72538875E-14
  0.298750013      -7.68638896E-14
  0.300000012      -7.86351846E-14
  0.301250011      -7.22021726E-14
  0.302500010      -5.80238236E-14
  0.303750008      -3.73563248E-14
  0.305000007      -1.21428136E-14
  0.306250006       1.51707480E-14
  0.307500005       4.18760384E-14
  0.308750004       6.52753879E-14
  0.310000002       8.29601009E-14
  0.311250001       9.30647839E-14
  0.312500000       9.44713193E-14
  0.313749999       8.69401190E-14
  0.314999998       7.11531799E-14
  0.316249996       4.86632829E-14
  0.317499995       2.17522465E-14
  0.318749994      -6.78885726E-15
  0.319999993      -3.39360294E-14
  0.321249992      -5.67380242E-14
  0.322499990      -7.26208847E-14
  0.323749989      -7.96590712E-14
  0.324999988      -7.67852646E-14
  0.326249987      -6.39167132E-14
  0.327499986      -4.19828052E-14
  0.328750014      -1.28498295E-14
  0.330000013       2.08510628E-14
  0.331250012       5.59774022E-14
  0.332500011       8.91847495E-14
  0.333750010       1.17261913E-13
  0.335000008       1.37458499E-13
  0.336250007       1.47771606E-13
  0.337500006       1.47161919E-13
  0.338750005       1.35675515E-13
  0.340000004       1.14460145E-13
  0.341250002       8.56690546E-14
  0.342500001       5.22627291E-14
  0.343750000       1.77284250E-14
  0.344999999      -1.42599352E-14
  0.346249998      -4.02033177E-14
  0.347499996      -5.71280219E-14
  0.348749995      -6.28910715E-14
  0.349999994      -5.64046863E-14
  0.351249993      -3.77618909E-14
  0.352499992      -8.24632483E-15
  0.353749990       2.97768232E-14
  0.354999989       7.30748131E-14
  0.356249988       1.17855107E-13
  0.357499987       1.60128272E-13
  0.358749986       1.96102195E-13
  0.360000014       2.22557419E-13
  0.361250013       2.37173752E-13
  0.362500012       2.38779591E-13
  0.363750011       2.27486460E-13
  0.365000010       2.04704065E-13
  0.366250008       1.73026971E-13
  0.367500007       1.36001372E-13
  0.368750006       9.77976313E-14
  0.370000005       6.28152519E-14
  0.371250004       3.52553917E-14
  0.372500002       1.87044560E-14
  0.373750001       1.57637727E-14
  0.375000000       2.77661381E-14
  0.376249999       5.46141298E-14
  0.377499998       9.47372673E-14
  0.378749996       1.45205869E-13
  0.379999995       2.01966956E-13
  0.381249994       2.60204618E-13
  0.382499993       3.14772541E-13
  0.383749992       3.60679938E-13
  0.384999990       3.93563356E-13
  0.386249989       4.10131022E-13
  0.387499988       4.08520792E-13
  0.388749987       3.88507287E-13
  0.389999986       3.51581747E-13
  0.391250014       3.00894536E-13
  0.392500013       2.41010391E-13
  0.393750012       1.77516964E-13
  0.395000011       1.16561193E-13
  0.396250010       6.42806256E-14
  0.397500008       2.62552888E-14
  0.398750007       6.95952763E-15
  0.400000006       9.33124614E-15
  0.401250005       3.44244761E-14
  0.402500004       8.12685219E-14
  0.403750002       1.46918434E-13
  0.405000001       2.26592345E-13
  0.406250000       3.14099902E-13
  0.407499999       4.02366861E-13
  0.408749998       4.84047915E-13
  0.409999996       5.52197882E-13
  0.411249995       6.00922252E-13
  0.412499994       6.25910998E-13
  0.413749993       6.24879976E-13
  0.414999992       5.97805768E-13
  0.416249990       5.46991218E-13
  0.417499989       4.76929477E-13
  0.418749988       3.93904798E-13
  0.419999987       3.05452685E-13
  0.421249986       2.19679066E-13
  0.422500014       1.44518512E-13
  0.423750013       8.69971277E-14
  0.425000012       5.26526759E-14
  0.426250011       4.48444281E-14
  0.427500010       6.45630332E-14
  0.428750008       1.10226274E-13
  0.430000007       1.77843404E-13
  0.431250006       2.61418898E-13
  0.432500005       3.53419551E-13
  0.433750004       4.45518839E-13
  0.435000002       5.29354880E-13
  0.436250001       5.97385206E-13
  0.437500000       6.43564900E-13
  0.438749999       6.63875096E-13
  0.439999998       6.56803984E-13
  0.441249996       6.23412671E-13
  0.442499995       5.67297457E-13
  0.443749994       4.94228573E-13
  0.444999993       4.11553685E-13
  0.446249992       3.27503161E-13
  0.447499990       2.50452897E-13
  0.448749989       1.87891450E-13
  0.449999988       1.45748620E-13
  0.451249987       1.27808557E-13
  0.452499986       1.35456316E-13
  0.453750014       1.67485261E-13
  0.455000013       2.20083066E-13
  0.456250012       2.87413810E-13
  0.457500011       3.62176760E-13
  0.458750010       4.36596993E-13
  0.460000008       5.02894818E-13
  0.461250007       5.54356420E-13
  0.462500006       5.86037946E-13
  0.463750005       5.95183462E-13
  0.465000004       5.81567509E-13
  0.466250002       5.47406142E-13
  0.467500001       4.97173808E-13
  0.468750000       4.37006822E-13
  0.469999999       3.74022807E-13
  0.471249998       3.15733821E-13
  0.472499996       2.69149503E-13
  0.473749995       2.39969584E-13
  0.474999994       2.32020512E-13
  0.476249993       2.46870422E-13
  0.477499992       2.83749315E-13
  0.478749990       3.39821406E-13
  0.479999989       4.10274326E-13
  0.481249988       4.88952899E-13
  0.482499987       5.69180824E-13
  0.483749986       6.44324058E-13
  0.485000014       7.09072503E-13
  0.486250013       7.59566943E-13
  0.487500012       7.93816618E-13
  0.488750011       8.11727692E-13
  0.490000010       8.15210963E-13
  0.491250008       8.07787702E-13
  0.492500007       7.94049668E-13
  0.493750006       7.79015795E-13
  0.495000005       7.67503194E-13
  0.496250004       7.63296056E-13
  0.497500002       7.68826355E-13
  0.498750001       7.84685630E-13
  0.500000000       8.09822261E-13
  0.501250029       8.41607057E-13
  0.502499998       8.76152558E-13
  0.503750026       9.08904571E-13
  0.504999995       9.35759608E-13
  0.506250024       9.53355992E-13
  0.507499993       9.59534210E-13
  0.508750021       9.54096936E-13
  0.509999990       9.39185145E-13
  0.511250019       9.18705108E-13
  0.512499988       8.97933962E-13
  0.513750017       8.83548009E-13
  0.514999986       8.81932494E-13
  0.516250014       8.98665040E-13
  0.517499983       9.37426677E-13
  0.518750012       9.99419189E-13
  0.519999981       1.08259560E-12
  0.521250010       1.18162240E-12
  0.522499979       1.28860247E-12
  0.523750007       1.39292516E-12
  0.524999976       1.48297509E-12
  0.526250005       1.54693955E-12
  0.527499974       1.57438613E-12
  0.528750002       1.55792501E-12
  0.529999971       1.49395036E-12
  0.531250000       1.38328845E-12
  0.532500029       1.23182692E-12
  0.533749998       1.05024214E-12
  0.535000026       8.53220218E-13
  0.536249995       6.57991782E-13
  0.537500024       4.83064597E-13
  0.538749993       3.46232754E-13
  0.540000021       2.62567203E-13
  0.541249990       2.42378193E-13
  0.542500019       2.90116645E-13
  0.543749988       4.03660368E-13
  0.545000017       5.74051277E-13
  0.546249986       7.85983637E-13
  0.547500014       1.01916565E-12
  0.548749983       1.25043216E-12
  0.550000012       1.45581973E-12
  0.551249981       1.61346836E-12
  0.552500010       1.70565916E-12
  0.553749979       1.72115219E-12
  0.555000007       1.65607892E-12
  0.556249976       1.51534080E-12
  0.557500005       1.31179291E-12
  0.558749974       1.06517280E-12
  0.560000002       8.00317332E-13
  0.561249971       5.44692275E-13
  0.562500000       3.25068585E-13
  0.563750029       1.65015191E-13
  0.564999998       8.20163233E-14
  0.566250026       8.47671542E-14
  0.567499995       1.72601001E-13
  0.568750024       3.34991637E-13
  0.569999993       5.52576810E-13
  0.571250021       7.98717104E-13
  0.572499990       1.04203104E-12
  0.573750019       1.24983184E-12
  0.574999988       1.39143298E-12
  0.576250017       1.44203529E-12
  0.577499986       1.38547875E-12
  0.578750014       1.21654249E-12
  0.579999983       9.41818130E-13
  0.581250012       5.79470770E-13
  0.582499981       1.57759656E-13
  0.583750010      -2.87398360E-13
  0.584999979      -7.15795153E-13
  0.586250007      -1.08725550E-12
  0.587499976      -1.36600356E-12
  0.588750005      -1.52462504E-12
  0.589999974      -1.54711465E-12
  0.591250002      -1.43071167E-12
  0.592499971      -1.18660897E-12
  0.593750000      -8.39601067E-13
  0.595000029      -4.25412282E-13
  0.596249998       1.23078885E-14
  0.597500026       4.26618728E-13
  0.598749995       7.71490294E-13
  0.600000024       1.00748457E-12
  0.601249993       1.10547357E-12
  0.602500021       1.05035837E-12
  0.603749990       8.42260831E-13
  0.605000019       4.97407020E-13
  0.606249988       4.62252612E-14
  0.607500017      -4.68578572E-13
  0.608749986      -9.97087178E-13
  0.610000014      -1.48699336E-12
  0.611249983      -1.88802749E-12
  0.612500012      -2.15803807E-12
  0.613749981      -2.26679829E-12
  0.615000010      -2.19980566E-12
  0.616249979      -1.95926652E-12
  0.617500007      -1.56445408E-12
  0.618749976      -1.04999386E-12
  0.620000005      -4.62178798E-13
  0.621249974       1.45411677E-13
  0.622500002       7.17798976E-13
  0.623749971       1.20374175E-12
  0.625000000       1.56072659E-12
  0.626250029       1.75978524E-12
  0.627499998       1.78773890E-12
  0.628750026       1.64870504E-12
  0.629999995       1.36283942E-12
  0.631250024       9.65119911E-13
  0.632499993       5.01247589E-13
  0.633750021       2.30742922E-14
  0.634999990      -4.16891023E-13
  0.636250019      -7.70984567E-13
  0.637499988      -1.00109222E-12
  0.638750017      -1.08253705E-12
  0.639999986      -1.00643604E-12
  0.641250014      -7.80216712E-13
  0.642499983      -4.26640440E-13
  0.643750012       1.84134188E-14
  0.644999981       5.10454960E-13
  0.646250010       1.00084394E-12
  0.647499979       1.44251744E-12
  0.648750007       1.79438474E-12
  0.649999976       2.02599396E-12
  0.651250005       2.12075301E-12
  0.652499974       2.07637987E-12
  0.653750002       1.90522272E-12
  0.654999971       1.63307584E-12
  0.656250000       1.29556511E-12
  0.657500029       9.35086318E-13
  0.658749998       5.95096563E-13
  0.660000026       3.16048050E-13
  0.661249995       1.30862226E-13
  0.662500024       6.18216212E-14
  0.663749993       1.18363191E-13
  0.665000021       2.96430442E-13
  0.666249990       5.78529791E-13
  0.667500019       9.36979444E-13
  0.668749988       1.33692363E-12
  0.670000017       1.73950633E-12
  0.671249986       2.10694222E-12
  0.672500014       2.40588734E-12
  0.673749983       2.61108236E-12
  0.675000012       2.70763468E-12
  0.676249981       2.69136601E-12
  0.677500010       2.56934686E-12
  0.678749979       2.35857319E-12
  0.680000007       2.08374095E-12
  0.681249976       1.77309502E-12
  0.682500005       1.45634557E-12
  0.683749974       1.15985975E-12
  0.685000002       9.05337925E-13
  0.686249971       7.06555257E-13
  0.687500000       5.68695102E-13
  0.688750029       4.89269053E-13
  0.689999998       4.59009187E-13
  0.691250026       4.63511174E-13
  0.692499995       4.85488006E-13
  0.693750024       5.07849839E-13
  0.694999993       5.16671233E-13
  0.696250021       5.02139671E-13
  0.697499990       4.60940422E-13
  0.698750019       3.95721487E-13
  0.699999988       3.15347032E-13
  0.701250017       2.33019469E-13
  0.702499986       1.63800370E-13
  0.703750014       1.22920364E-13
  0.704999983       1.23234403E-13
  0.706250012       1.71954004E-13
  0.707499981       2.70468896E-13
  0.708750010       4.13567645E-13
  0.709999979       5.88911732E-13
  0.711250007       7.78613177E-13
  0.712499976       9.61037348E-13
  0.713750005       1.11433356E-12
  0.714999974       1.21881108E-12
  0.716250002       1.25973700E-12
  0.717499971       1.23068840E-12
  0.718750000       1.13403167E-12
  0.720000029       9.82105348E-13
  0.721249998       7.96543820E-13
  0.722500026       6.05442183E-13
  0.723749995       4.40444854E-13
  0.725000024       3.33477847E-13
  0.726249993       3.13124445E-13
  0.727500021       3.99629494E-13
  0.728749990       6.02270349E-13
  0.730000019       9.16765145E-13
  0.731249988       1.32529176E-12
  0.732500017       1.79740760E-12
  0.733749986       2.29175901E-12
  0.735000014       2.76156485E-12
  0.736249983       3.15771541E-12
  0.737500012       3.43474424E-12
  0.738749981       3.55608641E-12
  0.740000010       3.49903700E-12
  0.741249979       3.25783042E-12
  0.742500007       2.84463599E-12
  0.743749976       2.29000911E-12
  0.745000005       1.64093728E-12
  0.746249974       9.55976834E-13
  0.747500002       2.99881295E-13
  0.748749971      -2.63666151E-13
  0.750000000      -6.77855883E-13
  0.751250029      -8.99512561E-13
  0.752499998      -9.03320713E-13
  0.753750026      -6.86125202E-13
  0.754999995      -2.68236713E-13
  0.756250024       3.09310384E-13
  0.757499993       9.87048984E-13
  0.758750021       1.69322054E-12
  0.759999990       2.35013202E-12
  0.761250019       2.88267262E-12
  0.762499988       3.22514975E-12
  0.763750017       3.32859456E-12
  0.764999986       3.16593540E-12
  0.766250014       2.73522849E-12
  0.767499983       2.06009949E-12
  0.768750012       1.18854991E-12
  0.769999981       1.86845209E-13
  0.771250010      -8.66016406E-13
  0.772499979      -1.88530853E-12
  0.773750007      -2.78975606E-12
  0.774999976      -3.50912637E-12
  0.776250005      -3.99182120E-12
  0.777499974      -4.21050564E-12
  0.778750002      -4.16440580E-12
  0.779999971      -3.87986735E-12
  0.781250000      -3.40699691E-12
  0.782500029      -2.81493470E-12
  0.783749998      -2.18479358E-12
  0.785000026      -1.60150170E-12
  0.786249995      -1.14563708E-12
  0.787500024      -8.84422960E-13
  0.788749993      -8.65513715E-13
  0.790000021      -1.11286804E-12
  0.791249990      -1.62393178E-12
  0.792500019      -2.37002779E-12
  0.793749988      -3.29922916E-12
  0.795000017      -4.34150502E-12
  0.796249986      -5.41605476E-12
  0.797500014      -6.43886550E-12
  0.798749983      -7.33134300E-12
  0.800000012      -8.02721171E-12
  0.801249981      -8.47856420E-12
  0.802500010      -8.65976648E-12
  0.803749979      -8.57049848E-12
  0.805000007      -8.23421539E-12
  0.806249976      -7.69503298E-12
  0.807500005      -7.01325369E-12
  0.808749974      -6.25892740E-12
  0.810000002      -5.50505171E-12
  0.811249971      -4.81987323E-12
  0.812500000      -4.26123503E-12
  0.813750029      -3.87079084E-12
  0.814999998      -3.67055084E-12
  0.816250026      -3.66182995E-12
  0.817499995      -3.82592309E-12
  0.818750024      -4.12635941E-12
  0.819999993      -4.51363426E-12
  0.821250021      -4.93028144E-12
  0.822499990      -5.31669240E-12
  0.823750019      -5.61675272E-12
  0.824999988      -5.78328704E-12
  0.826250017      -5.78192789E-12
  0.827499986      -5.59329406E-12
  0.828750014      -5.21441831E-12
  0.829999983      -4.65837178E-12
  0.831250012      -3.95182194E-12
  0.832499981      -3.13184049E-12
  0.833750010      -2.24169663E-12
  0.834999979      -1.32781492E-12
  0.836250007      -4.34215598E-13
  0.837499976       4.00151429E-13
  0.838750005       1.14505031E-12
  0.839999974       1.77997320E-12
  0.841250002       2.29489149E-12
  0.842499971       2.69074455E-12
  0.843750000       2.97684685E-12
  0.845000029       3.17058901E-12
  0.846249998       3.29322984E-12
  0.847500026       3.36903313E-12
  0.848749995       3.42200010E-12
  0.850000024       3.47553019E-12
  0.851249993       3.55080765E-12
  0.852500021       3.66443377E-12
  0.853749990       3.82906684E-12
  0.855000019       4.05327031E-12
  0.856249988       4.34053704E-12
  0.857500017       4.69150543E-12
  0.858749986       5.10121806E-12
  0.860000014       5.56156163E-12
  0.861249983       6.06093040E-12
  0.862500012       6.58606503E-12
  0.863749981       7.12006409E-12
  0.865000010       7.64309536E-12
  0.866249979       8.13329872E-12
  0.867500007       8.56802650E-12
  0.868749976       8.92338894E-12
  0.870000005       9.17850431E-12