 -0.200000003       0.00000000    
 -0.198750004       0.00000000    
 -0.197500005       0.00000000    
 -0.196250007       0.00000000    
 -0.194999993       0.00000000    
 -0.193749994       0.00000000    
 -0.192499995       0.00000000    
 -0.191249996       0.00000000    
 -0.189999998       0.00000000    
 -0.188749999       0.00000000    
 -0.187500000       0.00000000    
 -0.186250001       0.00000000    
 -0.185000002       0.00000000    
 -0.183750004       0.00000000    
 -0.182500005       0.00000000    
 -0.181250006       0.00000000    
 -0.180000007       0.00000000    
 -0.178749993       0.00000000    
 -0.177499995       0.00000000    
 -0.176249996       0.00000000    
 -0.174999997       0.00000000    
 -0.173749998       0.00000000    
 -0.172499999       0.00000000    
 -0.171250001       0.00000000    
 -0.170000002       0.00000000    
 -0.168750003       0.00000000    
 -0.167500004       0.00000000    
 -0.166250005       0.00000000    
 -0.165000007       0.00000000    
 -0.163749993       0.00000000    
 -0.162499994       0.00000000    
 -0.161249995       0.00000000    
 -0.159999996       0.00000000    
 -0.158749998       0.00000000    
 -0.157499999       0.00000000    
 -0.156250000       0.00000000    
 -0.155000001       0.00000000    
 -0.153750002       0.00000000    
 -0.152500004       0.00000000    
 -0.151250005       0.00000000    
 -0.150000006       0.00000000    
 -0.148750007       0.00000000    
 -0.147499993       0.00000000    
 -0.146249995       0.00000000    
 -0.144999996       0.00000000    
 -0.143749997       0.00000000    
 -0.142499998       0.00000000    
 -0.141249999       0.00000000    
 -0.140000001       0.00000000    
 -0.138750002       0.00000000    
 -0.137500003       0.00000000    
 -0.136250004       0.00000000    
 -0.135000005       0.00000000    
 -0.133750007       0.00000000    
 -0.132499993       0.00000000    
 -0.131249994       0.00000000    
 -0.129999995       0.00000000    
 -0.128749996       0.00000000    
 -0.127499998       0.00000000    
 -0.126249999       0.00000000    
 -0.125000000       0.00000000    
 -0.123750001       0.00000000    
 -0.122500002       0.00000000    
 -0.121250004       0.00000000    
 -0.119999997       0.00000000    
 -0.118749999       0.00000000    
 -0.117500000       0.00000000    
 -0.116250001       0.00000000    
 -0.115000002       0.00000000    
 -0.113750003       0.00000000    
 -0.112499997       0.00000000    
 -0.111249998      -4.48415509E-41
 -0.109999999      -8.96831017E-41
 -0.108750001      -1.90576591E-40
 -0.107500002      -2.80259693E-40
 -0.106250003      -3.90349904E-40
 -0.104999997      -4.12770680E-40
 -0.103749998       1.27342998E-40
 -0.102499999      -1.06274476E-41
 -0.101250000       1.97880579E-39
 -0.100000001       3.54409962E-39
  -9.87500027E-02   4.76373935E-39
  -9.74999964E-02   7.26136469E-39
  -9.62499976E-02   8.54063388E-39
  -9.49999988E-02   5.53934965E-39
  -9.37500000E-02  -3.26635806E-39
  -9.25000012E-02  -1.99856494E-38
  -9.12500024E-02  -4.88931587E-38
  -9.00000036E-02  -8.70636489E-38
  -8.87499973E-02  -1.26978716E-37
  -8.74999985E-02  -1.52806183E-37
  -8.62499997E-02  -1.37529070E-37
  -8.50000009E-02  -4.24118114E-38
  -8.37500021E-02   1.72670104E-37
  -8.25000033E-02   5.39710933E-37
  -8.12499970E-02   1.05669124E-36
  -7.99999982E-02   1.65073677E-36
  -7.87499994E-02   2.14807943E-36
  -7.75000006E-02   2.24360305E-36
  -7.62500018E-02   1.50655199E-36
  -7.50000030E-02  -5.61421732E-37
  -7.37499967E-02  -4.37910389E-36
  -7.24999979E-02  -1.00491896E-35
  -7.12499991E-02  -1.70283802E-35
  -7.00000003E-02  -2.37709395E-35
  -6.87500015E-02  -2.74424437E-35
  -6.75000027E-02  -2.39150824E-35
  -6.62499964E-02  -8.24801783E-36
  -6.49999976E-02   2.41273057E-35
  -6.37499988E-02   7.53643809E-35
  -6.25000000E-02   1.42404609E-34
  -6.12500012E-02   2.13861039E-34
  -5.99999987E-02   2.67496183E-34
  -5.87499999E-02   2.69672455E-34
  -5.75000010E-02   1.78516117E-34
  -5.62499985E-02  -4.75357403E-35
  -5.49999997E-02  -4.34799794E-34
  -5.37500009E-02  -9.73571696E-34
  -5.24999984E-02  -1.59456396E-33
  -5.12499996E-02  -2.14871753E-33
  -5.00000007E-02  -2.39985694E-33
  -4.87499982E-02  -2.04180871E-33
  -4.74999994E-02  -7.51345454E-34
  -4.62500006E-02   1.71610641E-33
  -4.50000018E-02   5.39074656E-33
  -4.37499993E-02   9.93074599E-33
  -4.25000004E-02   1.44800744E-32
  -4.12500016E-02   1.75987315E-32
  -3.99999991E-02   1.73356132E-32
  -3.87500003E-02   1.15130187E-32
  -3.75000015E-02  -1.73279677E-33
  -3.62499990E-02  -2.31648721E-32
  -3.50000001E-02  -5.15072531E-32
  -3.37500013E-02  -8.25561731E-32
  -3.24999988E-02  -1.08648815E-31
  -3.12500000E-02  -1.18871725E-31
  -2.99999993E-02  -1.00388934E-31
  -2.87500005E-02  -4.11490144E-32
  -2.74999999E-02   6.60430401E-32
  -2.62499992E-02   2.18526234E-31
  -2.50000004E-02   3.98826237E-31
  -2.37499997E-02   5.71246714E-31
  -2.25000009E-02   6.81894775E-31
  -2.12500002E-02   6.64048796E-31
  -1.99999996E-02   4.50242266E-31
  -1.87500007E-02  -8.80355197E-33
  -1.75000001E-02  -7.20189936E-31
  -1.62499994E-02  -1.62402933E-30
  -1.49999997E-02  -2.57450942E-30
  -1.37499999E-02  -3.33533563E-30
  -1.25000002E-02  -3.59830331E-30
  -1.12500004E-02  -3.03164319E-30
  -9.99999978E-03  -1.35964457E-30
  -8.75000004E-03   1.53301560E-30
  -7.49999983E-03   5.48907375E-30
  -6.25000009E-03   9.98590237E-30
  -4.99999989E-03   1.40973754E-29
  -3.74999992E-03   1.65473764E-29
  -2.49999994E-03   1.58842471E-29
  -1.24999997E-03   1.07860540E-29
   0.00000000       4.75091370E-31
   1.24999997E-03  -1.48197450E-29
   2.49999994E-03  -3.34556751E-29
   3.74999992E-03  -5.21588111E-29
   4.99999989E-03  -6.61417246E-29
   6.25000009E-03  -6.96754750E-29
   7.49999983E-03  -5.71664457E-29
   8.75000004E-03  -2.46758616E-29
   9.99999978E-03   2.83259667E-29
   1.12500004E-02   9.73321600E-29
   1.25000002E-02   1.71781239E-28
   1.37499999E-02   2.35178459E-28
   1.49999997E-02   2.66809427E-28
   1.62499994E-02   2.45272571E-28
   1.75000001E-02   1.53674416E-28
   1.87500007E-02  -1.41686604E-29
   1.99999996E-02  -2.47710943E-28
   2.12500002E-02  -5.15470190E-28
   2.25000009E-02  -7.64455762E-28
   2.37499997E-02  -9.24854093E-28
   2.50000004E-02  -9.20890336E-28
   2.62499992E-02  -6.87563201E-28
   2.74999999E-02  -1.91326804E-28
   2.87500005E-02   5.48971453E-28
   2.99999993E-02   1.44610915E-27
   3.12500000E-02   2.33943134E-27
   3.24999988E-02   3.00624009E-27
   3.37500013E-02   3.19312656E-27
   3.50000001E-02   2.66705186E-27
   3.62499990E-02   1.28097192E-27
   3.75000015E-02  -9.56807485E-28
   3.87500003E-02  -3.82534523E-27
   3.99999991E-02  -6.86454434E-27
   4.12500016E-02  -9.39742109E-27
   4.25000004E-02  -1.06138069E-26
   4.37499993E-02  -9.71768167E-27
   4.50000018E-02  -6.12556771E-27
   4.62500006E-02   3.13576230E-28
   4.74999994E-02   9.12233974E-27
   4.87499982E-02   1.90786256E-26
   5.00000007E-02   2.82356213E-26
   5.12499996E-02   3.41217501E-26
   5.24999984E-02   3.41367077E-26
   5.37500009E-02   2.61185405E-26
   5.49999997E-02   9.00781317E-27
   5.62499985E-02  -1.65136968E-26
   5.75000010E-02  -4.75679921E-26
   5.87499999E-02  -7.89784181E-26
   5.99999987E-02  -1.03663484E-25
   6.12500012E-02  -1.13603502E-25
   6.25000000E-02  -1.01349885E-25
   6.37499988E-02  -6.19118561E-26
   6.49999976E-02   5.28429224E-27
   6.62499964E-02   9.47848548E-26
   6.75000027E-02   1.94324347E-25
   6.87500015E-02   2.85310627E-25
   7.00000003E-02   3.44878106E-25
   7.12499991E-02   3.49549000E-25
   7.24999979E-02   2.80198759E-25
   7.37499967E-02   1.27632555E-25
   7.50000030E-02  -1.02263392E-25
   7.62500018E-02  -3.85060585E-25
   7.75000006E-02  -6.77290927E-25
   7.87499994E-02  -9.19922059E-25
   7.99999982E-02  -1.04625093E-24
   8.12499970E-02  -9.93826197E-25
   8.25000033E-02  -7.19027043E-25
   8.37500021E-02  -2.11943555E-25
   8.50000009E-02   4.91545196E-25
   8.62499997E-02   1.30389222E-24
   8.74999985E-02   2.08925334E-24
   8.87499973E-02   2.67804019E-24
   9.00000036E-02   2.89275826E-24
   9.12500024E-02   2.58285505E-24
   9.25000012E-02   1.66373940E-24
   9.37500000E-02   1.52910789E-25
   9.49999988E-02  -1.80523699E-24
   9.62499976E-02  -3.93429467E-24
   9.74999964E-02  -5.84692343E-24
   9.87500027E-02  -7.09492032E-24
  0.100000001      -7.24571029E-24
  0.101250000      -5.97643664E-24
  0.102499999      -3.17067692E-24
  0.103749998       1.00170445E-24
  0.104999997       6.04296917E-24
  0.106250003       1.11432164E-23
  0.107500002       1.52656607E-23
  0.108750001       1.73024144E-23
  0.109999999       1.62872640E-23
  0.111249998       1.16362182E-23
  0.112499997       3.37299844E-24
  0.113750003      -7.71198152E-24
  0.115000002      -2.00205277E-23
  0.116250001      -3.12642774E-23
  0.117500000      -3.87597592E-23
  0.118749999      -3.98876536E-23
  0.119999997      -3.26652312E-23
  0.121250004      -1.63432668E-23
  0.122500002       8.09060872E-24
  0.123750001       3.76333384E-23
  0.125000000       6.73331595E-23
  0.126249999       9.07840441E-23
  0.127499998       1.01064429E-22
  0.128749996       9.20499892E-23
  0.129999995       5.99332403E-23
  0.131249994       4.69454872E-24
  0.132499993      -6.87923817E-23
  0.133750007      -1.50350048E-22
  0.135000005      -2.25061991E-22
  0.136250004      -2.74971643E-22
  0.137500003      -2.81890142E-22
  0.138750002      -2.31055441E-22
  0.140000001      -1.15146303E-22
  0.141249999       6.20569485E-23
  0.142499998       2.83193164E-22
  0.143749997       5.16845459E-22
  0.144999996       7.19721298E-22
  0.146249995       8.41793093E-22
  0.147499993       8.34206549E-22
  0.148750007       6.59174495E-22
  0.150000006       3.00479037E-22
  0.151250005      -2.27282136E-22
  0.152500004      -8.72817819E-22
  0.153750002      -1.54765977E-21
  0.155000001      -2.13260470E-21
  0.156250000      -2.49169055E-21
  0.157499999      -2.49306501E-21
  0.158749998      -2.03463126E-21
  0.159999996      -1.07093959E-21
  0.161249995       3.63339564E-22
  0.162499994       2.13854724E-21
  0.163749993       4.02867170E-21
  0.165000007       5.72710978E-21
  0.166250005       6.88094474E-21
  0.167500004       7.14209471E-21
  0.168750003       6.23027146E-21
  0.170000002       3.99933183E-21
  0.171250001       4.96072391E-22
  0.172499999      -4.00072446E-21
  0.173749998      -8.97246607E-21
  0.174999997      -1.36927246E-20
  0.176249996      -1.73025682E-20
  0.177499995      -1.89259990E-20
  0.178749993      -1.78145963E-20
  0.180000007      -1.35030369E-20
  0.181250006      -5.95132580E-21
  0.182500005       4.35325042E-21
  0.183750004       1.63603255E-20
  0.185000002       2.85067700E-20
  0.186250001       3.88627159E-20
  0.187500000       4.53687725E-20
  0.188749999       4.61436792E-20
  0.189999998       3.98259483E-20
  0.191249996       2.59002690E-20
  0.192499995       4.95219866E-21
  0.193749994      -2.12038331E-20
  0.194999993      -4.95683943E-20
  0.196250007      -7.61981655E-20
  0.197500005      -9.66424836E-20
  0.198750004      -1.06541949E-19
  0.200000003      -1.02323347E-19
  0.201250002      -8.18990297E-20
  0.202500001      -4.52612972E-20
  0.203749999       5.13911441E-21
  0.204999998       6.43265857E-20
  0.206249997       1.25109284E-19
  0.207499996       1.78778585E-19
  0.208749995       2.16156330E-19
  0.209999993       2.28887053E-19
  0.211250007       2.10818443E-19
  0.212500006       1.59275966E-19
  0.213750005       7.60228743E-20
  0.215000004      -3.22851533E-20
  0.216250002      -1.54295732E-19
  0.217500001      -2.74873513E-19
  0.218750000      -3.76703298E-19
  0.219999999      -4.42447277E-19
  0.221249998      -4.57221292E-19
  0.222499996      -4.11076479E-19
  0.223749995      -3.01127089E-19
  0.224999994      -1.32973264E-19
  0.226249993       7.88816687E-20
  0.227500007       3.11810411E-19
  0.228750005       5.37084598E-19
  0.230000004       7.23016343E-19
  0.231250003       8.38921614E-19
  0.232500002       8.59455546E-19
  0.233750001       7.68765066E-19
  0.234999999       5.63865656E-19
  0.236249998       2.56683166E-19
  0.237499997      -1.25673615E-19
  0.238749996      -5.42655452E-19
  0.239999995      -9.44027939E-19
  0.241249993      -1.27536413E-18
  0.242500007      -1.48473647E-18
  0.243750006      -1.52985214E-18
  0.245000005      -1.38473147E-18
  0.246250004      -1.04500084E-18
  0.247500002      -5.30950847E-19
  0.248750001       1.12284495E-19
  0.250000000       8.17759284E-19
  0.251249999       1.50291066E-18
  0.252499998       2.07845424E-18
  0.253749996       2.45911511E-18
  0.254999995       2.57500828E-18
  0.256249994       2.38227789E-18
  0.257499993       1.87153708E-18
  0.258749992       1.07280362E-18
  0.259999990       5.59034055E-20
  0.261249989      -1.07418884E-18
  0.262499988      -2.18703142E-18
  0.263749987      -3.14072744E-18
  0.264999986      -3.79894070E-18
  0.266250014      -4.04905117E-18
  0.267500013      -3.81922731E-18
  0.268750012      -3.09206813E-18
  0.270000011      -1.91263514E-18
  0.271250010      -3.89156244E-19
  0.272500008       1.31454147E-18
  0.273750007       2.99487379E-18
  0.275000006       4.43147248E-18
  0.276250005       5.41506592E-18
  0.277500004       5.77707324E-18
  0.278750002       5.41705653E-18
  0.280000001       4.32392577E-18
  0.281250000       2.58714654E-18
  0.282499999       3.95014285E-19
  0.283749998      -1.98145305E-18
  0.284999996      -4.21863436E-18
  0.286249995      -5.98195140E-18
  0.287499994      -6.97449410E-18
  0.288749993      -6.98635256E-18
  0.289999992      -5.93731922E-18
  0.291249990      -3.90545716E-18
  0.292499989      -1.13502787E-18
  0.293749988       1.98063828E-18
  0.294999987       4.94251666E-18
  0.296249986       7.21290162E-18
  0.297500014       8.29913783E-18
  0.298750013       7.84347794E-18
  0.300000012       5.70554031E-18
  0.301250011       2.02274404E-18
  0.302500010      -2.76502925E-18
  0.303750008      -7.93696341E-18
  0.305000007      -1.25638701E-17
  0.306250006      -1.56293163E-17
  0.307500005      -1.61884027E-17
  0.308750004      -1.35453224E-17
  0.310000002      -7.42405849E-18
  0.311250001       1.89703989E-18
  0.312500000       1.35158185E-17
  0.313749999       2.59260440E-17
  0.314999998       3.71405782E-17
  0.316249996       4.49183888E-17
  0.317499995       4.70793485E-17
  0.318749994       4.18735701E-17
  0.319999993       2.83571940E-17
  0.321249992       6.71631366E-18
  0.322499990      -2.15222982E-17
  0.323749989      -5.34486558E-17
  0.324999988      -8.49345215E-17
  0.326249987      -1.11020119E-16
  0.327499986      -1.26505747E-16
  0.328750014      -1.26696382E-16
  0.330000013      -1.08214395E-16
  0.331250012      -6.97708847E-17
  0.332500011      -1.27710168E-17
  0.333750010       5.83676309E-17
  0.335000008       1.36282744E-16
  0.336250007       2.11180984E-16
  0.337500006       2.71801491E-16
  0.338750005       3.06767143E-16
  0.340000004       3.06194681E-16
  0.341250002       2.63375101E-16
  0.342500001       1.76293510E-16
  0.343750000       4.87446649E-17
  0.344999999      -1.09183506E-16
  0.346249998      -2.81430561E-16
  0.347499996      -4.47173786E-16
  0.348749995      -5.82901181E-16
  0.349999994      -6.65194720E-16
  0.351249993      -6.73945841E-16
  0.352499992      -5.95627322E-16
  0.353749990      -4.26175945E-16
  0.354999989      -1.73032632E-16
  0.356249988       1.44065402E-16
  0.357499987       4.93832596E-16
  0.358749986       8.35845442E-16
  0.360000014       1.12453058E-15
  0.361250013       1.31441546E-15
  0.362500012       1.36612142E-15
  0.363750011       1.25239443E-15
  0.365000010       9.63387216E-16
  0.366250008       5.10382985E-16
  0.367500007      -7.27277709E-17
  0.368750006      -7.30716477E-16
  0.370000005      -1.39121752E-15
  0.371250004      -1.97169259E-15
  0.372500002      -2.38860729E-15
  0.373750001      -2.56790553E-15
  0.375000000      -2.45560632E-15
  0.376249999      -2.02716012E-15
  0.377499998      -1.29423807E-15
  0.378749996      -3.07771565E-16
  0.379999995       8.43581288E-16
  0.381249994       2.03988086E-15
  0.382499993       3.14101628E-15
  0.383749992       4.00161404E-15
  0.384999990       4.48831239E-15
  0.386249989       4.49750355E-15
  0.387499988       3.97140249E-15
  0.388749987       2.91026375E-15
  0.389999986       1.37883252E-15
  0.391250014      -4.94370409E-16
  0.392500013      -2.52559115E-15
  0.393750012      -4.49197962E-15
  0.395000011      -6.15413397E-15
  0.396250010      -7.28295699E-15
  0.397500008      -7.68802170E-15
  0.398750007      -7.24418491E-15
  0.400000006      -5.91304722E-15
  0.401250005      -3.75625443E-15
  0.402500004      -9.38219220E-16
  0.403750002       2.28301129E-15
  0.405000001       5.57680182E-15
  0.406250000       8.57148130E-15
  0.407499999       1.08936357E-14
  0.408749998       1.22112598E-14
  0.409999996       1.22760222E-14
  0.411249995       1.09596627E-14
  0.412499994       8.27973605E-15
  0.413749993       4.41082412E-15
  0.414999992      -3.21357021E-16
  0.416249990      -5.46370429E-15
  0.417499989      -1.04761281E-14
  0.418749988      -1.47853091E-14
  0.419999987      -1.78467962E-14
  0.421249986      -1.92089759E-14
  0.422500014      -1.85718038E-14
  0.423750013      -1.58331566E-14
  0.425000012      -1.11165815E-14
  0.426250011      -4.77580850E-15
  0.427500010       2.62627647E-15
  0.428750008       1.03638047E-14
  0.430000007       1.76159204E-14
  0.431250006       2.35506161E-14
  0.432500005       2.74161221E-14
  0.433750004       2.86301575E-14
  0.435000002       2.68568957E-14
  0.436250001       2.20620505E-14
  0.437500000       1.45384820E-14
  0.438749999       4.89729124E-15
  0.439999998      -5.97695077E-15
  0.441249996      -1.70042728E-14
  0.442499995      -2.70141982E-14
  0.443749994      -3.48675726E-14
  0.444999993      -3.95828017E-14
  0.446249992      -4.04527655E-14
  0.447499990      -3.71387525E-14
  0.448749989      -2.97296537E-14
  0.449999988      -1.87576666E-14
  0.451249987      -5.16622462E-15
  0.452499986       9.76888688E-15
  0.453750014       2.45591901E-14
  0.455000013       3.76527321E-14
  0.456250012       4.75978374E-14
  0.457500011       5.32039317E-14
  0.458750010       5.36813466E-14
  0.460000008       4.87436663E-14
  0.461250007       3.86595426E-14
  0.462500006       2.42459420E-14
  0.463750005       6.80156826E-15
  0.465000004      -1.20146592E-14
  0.466250002      -3.03482181E-14
  0.467500001      -4.63398207E-14
  0.468750000      -5.83217827E-14
  0.469999999      -6.49982387E-14
  0.471249998      -6.55884310E-14
  0.472499996      -5.99165967E-14
  0.473749995      -4.84370472E-14
  0.474999994      -3.21912059E-14
  0.476249993      -1.27005984E-14
  0.477499992       8.19221044E-15
  0.478749990       2.85167093E-14
  0.479999989       4.63792653E-14
  0.481249988       6.01561986E-14
  0.482499987       6.86527725E-14
  0.483749986       7.12105139E-14
  0.485000014       6.77516515E-14
  0.486250013       5.87574558E-14
  0.487500012       4.51858399E-14
  0.488750011       2.83413887E-14
  0.490000010       9.71641150E-15
  0.491250008      -9.17471021E-15
  0.492500007      -2.69457884E-14
  0.493750006      -4.24547719E-14
  0.495000005      -5.48723088E-14
  0.496250004      -6.36976772E-14
  0.497500002      -6.87255970E-14
  0.498750001      -6.99755060E-14
  0.500000000      -6.76011574E-14
  0.501250029      -6.18013805E-14
  0.502499998      -5.27533068E-14
  0.503750026      -4.05844995E-14
  0.504999995      -2.53936463E-14
  0.506250024      -7.31964538E-15
  0.507499993       1.33515593E-14
  0.508750021       3.60625531E-14
  0.509999990       5.98697388E-14
  0.511250019       8.33684047E-14
  0.512499988       1.04685913E-13
  0.513750017       1.21563512E-13
  0.514999986       1.31535882E-13
  0.516250014       1.32201555E-13
  0.517499983       1.21561168E-13
  0.518750012       9.83844150E-14
  0.519999981       6.25556261E-14
  0.521250010       1.53408729E-14
  0.522499979      -4.04768585E-14
  0.523750007      -1.00639102E-13
  0.524999976      -1.59654787E-13
  0.526250005      -2.11245978E-13
  0.527499974      -2.48968245E-13
  0.528750002      -2.66950958E-13
  0.529999971      -2.60677195E-13
  0.531250000      -2.27707312E-13
  0.532500029      -1.68246263E-13
  0.533749998      -8.54607793E-14
  0.535000026       1.45242112E-14
  0.536249995       1.22988262E-13
  0.537500024       2.29332991E-13
  0.538749993       3.22104404E-13
  0.540000021       3.90225748E-13
  0.541249990       4.24309405E-13
  0.542500019       4.17895373E-13
  0.543749988       3.68454941E-13
  0.545000017       2.78016976E-13
  0.546249986       1.53306269E-13
  0.547500014       5.33429586E-15
  0.548749983      -1.51550322E-13
  0.550000012      -3.01080558E-13
  0.551249981      -4.26819333E-13
  0.552500010      -5.14050228E-13
  0.553749979      -5.51587313E-13
  0.555000007      -5.33278499E-13
  0.556249976      -4.58996773E-13
  0.557500005      -3.34965074E-13
  0.558749974      -1.73332201E-13
  0.560000002       8.99106923E-15
  0.561249971       1.92137918E-13
  0.562500000       3.55542933E-13
  0.563750029       4.80396376E-13
  0.564999998       5.51997901E-13
  0.566250026       5.61707419E-13
  0.567499995       5.08225948E-13
  0.568750024       3.98006010E-13
  0.569999993       2.44696190E-13
  0.571250021       6.76369903E-14
  0.572499990      -1.10445927E-13
  0.573750019      -2.66295937E-13
  0.574999988      -3.79183745E-13
  0.576250017      -4.33780507E-13
  0.577499986      -4.22456530E-13
  0.578750014      -3.46666760E-13
  0.579999983      -2.17186173E-13
  0.581250012      -5.30903345E-14
  0.582499981       1.20461624E-13
  0.583750010       2.75423591E-13
  0.584999979       3.84675852E-13
  0.586250007       4.25986557E-13
  0.587499976       3.85597153E-13
  0.588750005       2.60922035E-13
  0.589999974       6.19305361E-14
  0.591250002      -1.89079939E-13
  0.592499971      -4.59423081E-13
  0.593750000      -7.09556979E-13
  0.595000029      -8.97881867E-13
  0.596249998      -9.86276490E-13
  0.597500026      -9.45711391E-13
  0.598749995      -7.61210105E-13
  0.600000024      -4.35454759E-13
  0.601249993       9.55250385E-15
  0.602500021       5.33165959E-13
  0.603749990       1.07923371E-12
  0.605000019       1.58153124E-12
  0.606249988       1.97100843E-12
  0.607500017       2.18411769E-12
  0.608749986       2.17127987E-12
  0.610000014       1.90446313E-12
  0.611249983       1.38286160E-12
  0.612500012       6.35820010E-13
  0.613749981      -2.77591887E-13
  0.615000010      -1.27258924E-12
  0.616249979      -2.24609459E-12
  0.617500007      -3.08697078E-12
  0.618749976      -3.68809193E-12
  0.620000005      -3.95897941E-12
  0.621249974      -3.83757566E-12
  0.622500002      -3.29971293E-12
  0.623749971      -2.36501639E-12
  0.625000000      -1.09828813E-12
  0.626250029       3.94110661E-13
  0.627499998       1.97282598E-12
  0.628750026       3.47839075E-12
  0.629999995       4.74725077E-12
  0.631250024       5.62935159E-12
  0.632499993       6.00536764E-12
  0.633750021       5.80167555E-12
  0.634999990       5.00120171E-12
  0.636250019       3.64872715E-12
  0.637499988       1.84972892E-12
  0.638750017      -2.37476597E-13
  0.639999986      -2.41576941E-12
  0.641250014      -4.46821876E-12
  0.642499983      -6.18017443E-12
  0.643750012      -7.36218291E-12
  0.644999981      -7.87123231E-12
  0.646250010      -7.62791219E-12
  0.647499979      -6.62743905E-12
  0.648750007      -4.94306939E-12
  0.649999976      -2.72122147E-12
  0.651250005      -1.68550680E-13
  0.652499974       2.46792647E-12
  0.653750002       4.92568659E-12
  0.654999971       6.95398513E-12
  0.656250000       8.34063547E-12
  0.657500029       8.93534118E-12
  0.658749998       8.66689706E-12
  0.660000026       7.55223401E-12
  0.661249995       5.69609204E-12
  0.662500024       3.28117481E-12
  0.663749993       5.49653855E-13
  0.665000021      -2.22206238E-12
  0.666249990      -4.75263101E-12
  0.667500019      -6.78592382E-12
  0.668749988      -8.11869842E-12
  0.670000017      -8.62263733E-12
  0.671249986      -8.25822830E-12
  0.672500014      -7.07885356E-12
  0.673749983      -5.22454085E-12
  0.675000012      -2.90601419E-12
  0.676249981      -3.80814222E-13
  0.677500010       2.07580481E-12
  0.678749979       4.20189447E-12
  0.680000007       5.77815486E-12
  0.681249976       6.65221741E-12
  0.682500005       6.75502449E-12
  0.683749974       6.10742793E-12
  0.685000002       4.81623682E-12
  0.686249971       3.06019966E-12
  0.687500000       1.06765963E-12
  0.688750029      -9.11472937E-13
  0.689999998      -2.63600144E-12
  0.691250026      -3.90236975E-12
  0.692499995      -4.56870783E-12
  0.693750024      -4.57114728E-12
  0.694999993      -3.93046316E-12
  0.696250021      -2.74827600E-12
  0.697499990      -1.19339575E-12
  0.698750019       5.19968400E-13
  0.699999988       2.15935646E-12
  0.701250017       3.50316933E-12
  0.702499986       4.36811524E-12
  0.703750014       4.63160326E-12
  0.704999983       4.24637886E-12
  0.706250012       3.24564486E-12
  0.707499981       1.73826101E-12
  0.708750010      -1.05289604E-13
  0.709999979      -2.07415010E-12
  0.711250007      -3.94275064E-12
  0.712499976      -5.49753862E-12
  0.713750005      -6.56135563E-12
  0.714999974      -7.01247957E-12
  0.716250002      -6.79612399E-12
  0.717499971      -5.92727516E-12
  0.718750000      -4.48496969E-12
  0.720000029      -2.59931529E-12
  0.721249998      -4.33491269E-13
  0.722500026       1.83638109E-12
  0.723749995       4.04045764E-12
  0.725000024       6.03072800E-12
  0.726249993       7.69086878E-12
  0.727500021       8.93945421E-12
  0.728749990       9.72671856E-12
  0.730000019       1.00263686E-11
  0.731249988       9.82475559E-12
  0.732500017       9.11042856E-12
  0.733749986       7.86704556E-12
  0.735000014       6.07214756E-12
  0.736249983       3.70331890E-12
  0.737500012       7.51789418E-13
  0.738749981      -2.75804379E-12
  0.740000010      -6.74612709E-12
  0.741249979      -1.10556815E-11
  0.742500007      -1.54383537E-11
  0.743749976      -1.95504706E-11
  0.745000005      -2.29643214E-11
  0.746249974      -2.51966729E-11
  0.747500002      -2.57544541E-11
  0.748749971      -2.41947035E-11
  0.750000000      -2.01932811E-11
  0.751250029      -1.36144117E-11
  0.752499998      -4.57144999E-12
  0.753750026       6.53113891E-12
  0.754999995       1.89837503E-11
  0.756250024       3.17928045E-11
  0.757499993       4.37403516E-11
  0.758750021       5.34815629E-11
  0.759999990       5.96740643E-11
  0.761250019       6.11283385E-11
  0.762499988       5.69645442E-11
  0.763750017       4.67574937E-11
  0.764999986       3.06515022E-11
  0.766250014       9.42702600E-12
  0.767499983      -1.54948589E-11
  0.768750012      -4.21188466E-11
  0.769999981      -6.80139903E-11
  0.771250010      -9.05176420E-11
  0.772499979      -1.06989459E-10
  0.773750007      -1.15093032E-10
  0.774999976      -1.13076631E-10
  0.776250005      -1.00022143E-10
  0.777499974      -7.60314103E-11
  0.778750002      -4.23231138E-11
  0.779999971      -1.22068881E-12
  0.781250000       4.39778179E-11
  0.782500029       8.92452709E-11
  0.783749998       1.30170305E-10
  0.785000026       1.62373684E-10
  0.786249995       1.81957893E-10
  0.787500024       1.85944815E-10
  0.788749993       1.72654599E-10
  0.790000021       1.41980705E-10
  0.791249990       9.55243801E-11
  0.792500019       3.65639151E-11
  0.793749988      -3.01501636E-11
  0.795000017      -9.87649892E-11
  0.796249986      -1.62833191E-10
  0.797500014      -2.15915258E-10
  0.798749983      -2.52220411E-10
  0.800000012      -2.67222328E-10
  0.801249981      -2.58184862E-10
  0.802500010      -2.24538679E-10
  0.803749979      -1.68062231E-10
  0.805000007      -9.28368701E-11
  0.806249976      -4.97013715E-12
  0.807500005       8.78977099E-11
  0.808749974       1.77264009E-10
  0.810000002       2.54551685E-10
  0.811249971       3.11940584E-10
  0.812500000       3.43161111E-10
  0.813750029       3.44167722E-10
  0.814999998       3.13621684E-10
  0.816250026       2.53125298E-10
  0.817499995       1.67177966E-10
  0.818750024       6.28460270E-11
  0.819999993      -5.08286538E-11
  0.821250021      -1.63631081E-10
  0.822499990      -2.65113764E-10
  0.823750019      -3.45586698E-10
  0.824999988      -3.97059552E-10
  0.826250017      -4.14043577E-10
  0.827499986      -3.94130228E-10
  0.828750014      -3.38286815E-10
  0.829999983      -2.50832716E-10
  0.831250012      -1.39095305E-10
  0.832499981      -1.27729346E-11
  0.833750010       1.16937252E-10
  0.834999979       2.38364717E-10
  0.836250007       3.40446643E-10
  0.837499976       4.13761414E-10
  0.838750005       4.51415599E-10
  0.839999974       4.49696919E-10
  0.841250002       4.08433037E-10
  0.842499971       3.31019767E-10
  0.843750000       2.24117752E-10
  0.845000029       9.70469122E-11
  0.846249998      -3.90628502E-11
  0.847500026      -1.72282882E-10
  0.848749995      -2.90962504E-10
  0.850000024      -3.84771881E-10
  0.851249993      -4.45612963E-10
  0.852500021      -4.68318495E-10
  0.853749990      -4.51076787E-10
  0.855000019      -3.95552147E-10
  0.856249988      -3.06692449E-10
  0.857500017      -1.92252672E-10
  0.858749986      -6.20826723E-11
  0.860000014       7.27504862E-11
  0.861249983       2.00924472E-10
  0.862500012       3.11820014E-10
  0.863749981       3.96394112E-10
  0.865000010       4.47896581E-10
  0.866249979       4.62377026E-10
  0.867500007       4.38946351E-10
  0.868749976       3.79786008E-10
  0.870000005       2.89911289E-10