 -0.200000003       0.00000000    
 -0.198750004       0.00000000    
 -0.197500005       0.00000000    
 -0.196250007       0.00000000    
 -0.194999993       0.00000000    
 -0.193749994       0.00000000    
 -0.192499995       0.00000000    
 -0.191249996       0.00000000    
 -0.189999998       0.00000000    
 -0.188749999       0.00000000    
 -0.187500000       0.00000000    
 -0.186250001       0.00000000    
 -0.185000002       0.00000000    
 -0.183750004       0.00000000    
 -0.182500005       0.00000000    
 -0.181250006       0.00000000    
 -0.180000007       0.00000000    
 -0.178749993       0.00000000    
 -0.177499995       0.00000000    
 -0.176249996       0.00000000    
 -0.174999997       0.00000000    
 -0.173749998       0.00000000    
 -0.172499999       0.00000000    
 -0.171250001       0.00000000    
 -0.170000002       0.00000000    
 -0.168750003       0.00000000    
 -0.167500004       0.00000000    
 -0.166250005       0.00000000    
 -0.165000007       0.00000000    
 -0.163749993       0.00000000    
 -0.162499994       0.00000000    
 -0.161249995       0.00000000    
 -0.159999996       0.00000000    
 -0.158749998       0.00000000    
 -0.157499999       0.00000000    
 -0.156250000       0.00000000    
 -0.155000001       0.00000000    
 -0.153750002       0.00000000    
 -0.152500004       0.00000000    
 -0.151250005       0.00000000    
 -0.150000006       0.00000000    
 -0.148750007       0.00000000    
 -0.147499993      -2.80259693E-45
 -0.146249995      -7.00649232E-45
 -0.144999996      -1.12103877E-44
 -0.143749997      -1.26116862E-44
 -0.142499998      -2.80259693E-45
 -0.141249999       3.92363570E-44
 -0.140000001       1.41531145E-43
 -0.138750002       3.41916825E-43
 -0.137500003       6.71221964E-43
 -0.136250004       1.10702579E-42
 -0.135000005       1.49798806E-42
 -0.133750007       1.43492963E-42
 -0.132499993       1.05097385E-43
 -0.131249994      -3.80872923E-42
 -0.129999995      -1.20357525E-41
 -0.128749996      -2.61832618E-41
 -0.127499998      -4.64362285E-41
 -0.126249999      -6.92017234E-41
 -0.125000000      -8.36743339E-41
 -0.123750001      -6.79419560E-41
 -0.122500002       1.36150159E-41
 -0.121250004       2.08248366E-40
 -0.119999997       5.63033315E-40
 -0.118749999       1.09738065E-39
 -0.117500000       1.75526225E-39
 -0.116250001       2.33817579E-39
 -0.115000002       2.43168163E-39
 -0.113750003       1.35709310E-39
 -0.112499997      -1.79634692E-39
 -0.111249998      -7.98159847E-39
 -0.109999999      -1.77623633E-38
 -0.108750001      -3.05840901E-38
 -0.107500002      -4.37772114E-38
 -0.106250003      -5.14835935E-38
 -0.104999997      -4.39337841E-38
 -0.103749998      -7.77822662E-39
 -0.102499999       7.15995580E-38
 -0.101250000       2.04838289E-37
 -0.100000001       3.89857824E-37
  -9.87500027E-02   6.00056674E-37
  -9.74999964E-02   7.71626681E-37
  -9.62499976E-02   7.94566991E-37
  -9.49999988E-02   5.14606032E-37
  -9.37500000E-02  -2.44824756E-37
  -9.25000012E-02  -1.63158619E-36
  -9.12500024E-02  -3.67979560E-36
  -9.00000036E-02  -6.19514724E-36
  -8.87499973E-02  -8.63045097E-36
  -8.74999985E-02  -9.99166396E-36
  -8.62499997E-02  -8.83591639E-36
  -8.50000009E-02  -3.43756082E-36
  -8.37500021E-02   7.80477309E-36
  -8.25000033E-02   2.56801262E-35
  -8.12499970E-02   4.92293131E-35
  -7.99999982E-02   7.47106327E-35
  -7.87499994E-02   9.47648878E-35
  -7.75000006E-02   9.82270745E-35
  -7.62500018E-02   7.11298577E-35
  -7.50000030E-02  -5.81628635E-37
  -7.37499967E-02  -1.26330447E-34
  -7.24999979E-02  -3.04376813E-34
  -7.12499991E-02  -5.14422088E-34
  -7.00000003E-02  -7.11236117E-34
  -6.87500015E-02  -8.22130004E-34
  -6.75000027E-02  -7.51699204E-34
  -6.62499964E-02  -3.97119369E-34
  -6.49999976E-02   3.24040653E-34
  -6.37499988E-02   1.43432232E-33
  -6.25000000E-02   2.85032033E-33
  -6.12500012E-02   4.34048644E-33
  -5.99999987E-02   5.50243836E-33
  -5.87499999E-02   5.77884484E-33
  -5.75000010E-02   4.53044780E-33
  -5.62499985E-02   1.17816465E-33
  -5.49999997E-02  -4.58793792E-33
  -5.37500009E-02  -1.25566689E-32
  -5.24999984E-02  -2.17512960E-32
  -5.12499996E-02  -3.02696643E-32
  -5.00000007E-02  -3.53037776E-32
  -4.87499982E-02  -3.34332252E-32
  -4.74999994E-02  -2.12579704E-32
  -4.62500006E-02   3.62759797E-33
  -4.50000018E-02   4.14154225E-32
  -4.37499993E-02   8.88368218E-32
  -4.25000004E-02   1.38226651E-31
  -4.12500016E-02   1.77323758E-31
  -3.99999991E-02   1.90241136E-31
  -3.87500003E-02   1.59929204E-31
  -3.75000015E-02   7.21987631E-32
  -3.62499990E-02  -7.90299898E-32
  -3.50000001E-02  -2.86087489E-31
  -3.37500013E-02  -5.22868633E-31
  -3.24999988E-02  -7.42824503E-31
  -3.12500000E-02  -8.81438609E-31
  -2.99999993E-02  -8.64623209E-31
  -2.87500005E-02  -6.23536088E-31
  -2.74999999E-02  -1.14827108E-31
  -2.62499992E-02   6.56573639E-31
  -2.50000004E-02   1.61697429E-30
  -2.37499997E-02   2.61212637E-30
  -2.25000009E-02   3.41099233E-30
  -2.12500002E-02   3.73084378E-30
  -1.99999996E-02   3.28635532E-30
  -1.87500007E-02   1.86024106E-30
  -1.75000001E-02  -6.13629398E-31
  -1.62499994E-02  -3.97068638E-30
  -1.49999997E-02  -7.76142545E-30
  -1.37499999E-02  -1.12465905E-29
  -1.25000002E-02  -1.34629831E-29
  -1.12500004E-02  -1.33716007E-29
  -9.99999978E-03  -1.00835425E-29
  -8.75000004E-03  -3.13760056E-30
  -7.49999983E-03   7.21974788E-30
  -6.25000009E-03   1.98209488E-29
  -4.99999989E-03   3.25093363E-29
  -3.74999992E-03   4.22888535E-29
  -2.49999994E-03   4.57369482E-29
  -1.24999997E-03   3.96775122E-29
   0.00000000       2.20450413E-29
   1.24999997E-03  -7.20174269E-30
   2.49999994E-03  -4.53229545E-29
   3.74999992E-03  -8.64403100E-29
   4.99999989E-03  -1.21812637E-28
   6.25000009E-03  -1.40906596E-28
   7.49999983E-03  -1.33288941E-28
   8.75000004E-03  -9.11761958E-29
   9.99999978E-03  -1.22596711E-29
   1.12500004E-02   9.77778202E-29
   1.25000002E-02   2.23767782E-28
   1.37499999E-02   3.41302327E-28
   1.49999997E-02   4.19271771E-28
   1.62499994E-02   4.24887542E-28
   1.75000001E-02   3.30861331E-28
   1.87500007E-02   1.23788533E-28
   1.99999996E-02  -1.87822911E-28
   2.12500002E-02  -5.67880377E-28
   2.25000009E-02  -9.51514067E-28
   2.37499997E-02  -1.25015502E-27
   2.50000004E-02  -1.36381821E-27
   2.62499992E-02  -1.20017281E-27
   2.74999999E-02  -6.98295398E-28
   2.87500005E-02   1.46752792E-28
   2.99999993E-02   1.26381141E-27
   3.12500000E-02   2.49594704E-27
   3.24999988E-02   3.60675757E-27
   3.37500013E-02   4.30638128E-27
   3.50000001E-02   4.29774272E-27
   3.62499990E-02   3.33926940E-27
   3.75000015E-02   1.31555633E-27
   3.87500003E-02  -1.69688776E-27
   3.99999991E-02  -5.38450261E-27
   4.12500016E-02  -9.18811950E-27
   4.25000004E-02  -1.23438898E-26
   4.37499993E-02  -1.39798925E-26
   4.50000018E-02  -1.32646545E-26
   4.62500006E-02  -9.59183909E-27
   4.74999994E-02  -2.77327537E-27
   4.87499982E-02   6.79709365E-27
   5.00000007E-02   1.80503054E-26
   5.12499996E-02   2.92595690E-26
   5.24999984E-02   3.81948516E-26
   5.37500009E-02   4.24218241E-26
   5.49999997E-02   3.97247857E-26
   5.62499985E-02   2.86029501E-26
   5.75000010E-02   8.76143434E-27
   5.87499999E-02  -1.85011240E-26
   5.99999987E-02  -5.01114276E-26
   6.12500012E-02  -8.13356207E-26
   6.25000000E-02  -1.06242246E-25
   6.37499988E-02  -1.18513027E-25
   6.49999976E-02  -1.12532906E-25
   6.62499964E-02  -8.46202526E-26
   6.75000027E-02  -3.41972219E-26
   6.87500015E-02   3.53357978E-26
   7.00000003E-02   1.16257575E-25
   7.12499991E-02   1.96905192E-25
   7.24999979E-02   2.62872637E-25
   7.37499967E-02   2.98994110E-25
   7.50000030E-02   2.91921996E-25
   7.62500018E-02   2.32954841E-25
   7.75000006E-02   1.20647709E-25
   7.87499994E-02  -3.73257796E-26
   7.99999982E-02  -2.23566459E-25
   8.12499970E-02  -4.11980290E-25
   8.25000033E-02  -5.70607054E-25
   8.37500021E-02  -6.66107098E-25
   8.50000009E-02  -6.69428843E-25
   8.62499997E-02  -5.61860066E-25
   8.74999985E-02  -3.40429004E-25
   8.87499973E-02  -2.15287213E-26
   9.00000036E-02   3.58263744E-25
   9.12500024E-02   7.44888763E-25
   9.25000012E-02   1.07323037E-24
   9.37500000E-02   1.27681604E-24
   9.49999988E-02   1.29963325E-24
   9.62499976E-02   1.10827355E-24
   9.74999964E-02   7.02188905E-25
   9.87500027E-02   1.19754558E-25
  0.100000001      -5.61843155E-25
  0.101250000      -1.23410159E-24
  0.102499999      -1.77212435E-24
  0.103749998      -2.05559758E-24
  0.104999997      -1.99299555E-24
  0.106250003      -1.54497067E-24
  0.107500002      -7.42185632E-25
  0.108750001       3.07088537E-25
  0.109999999       1.42329834E-24
  0.111249998       2.37762716E-24
  0.112499997       2.92879363E-24
  0.113750003       2.87060606E-24
  0.115000002       2.08322191E-24
  0.116250001       5.78721426E-25
  0.117500000      -1.46945036E-24
  0.118749999      -3.72289651E-24
  0.119999997      -5.70747886E-24
  0.121250004      -6.87751025E-24
  0.122500002      -6.71081211E-24
  0.123750001      -4.82353379E-24
  0.125000000      -1.08711748E-24
  0.126249999       4.27490745E-24
  0.127499998       1.06341897E-23
  0.128749996       1.69702109E-23
  0.129999995       2.19624777E-23
  0.131249994       2.41648905E-23
  0.132499993       2.22501705E-23
  0.133750007       1.52962764E-23
  0.135000005       3.07214800E-24
  0.136250004      -1.37300436E-23
  0.137500003      -3.33719496E-23
  0.138750002      -5.31047593E-23
  0.140000001      -6.93961822E-23
  0.141249999      -7.83548779E-23
  0.142499998      -7.63249432E-23
  0.143749997      -6.05868652E-23
  0.144999996      -3.00679635E-23
  0.146249995       1.40583217E-23
  0.147499993       6.80132712E-23
  0.148750007       1.25410507E-22
  0.150000006       1.77692320E-22
  0.151250005       2.15030508E-22
  0.152500004       2.27645113E-22
  0.153750002       2.07414706E-22
  0.155000001       1.49576775E-22
  0.156250000       5.42590016E-23
  0.157499999      -7.24434256E-23
  0.158749998      -2.18114487E-22
  0.159999996      -3.64595556E-22
  0.161249995      -4.89594644E-22
  0.162499994      -5.69281106E-22
  0.163749993      -5.81653626E-22
  0.165000007      -5.10307228E-22
  0.166250005      -3.48088876E-22
  0.167500004      -1.00053444E-22
  0.168750003       2.14870388E-22
  0.170000002       5.64003084E-22
  0.171250001       9.03140774E-22
  0.172499999       1.18093300E-21
  0.173749998       1.34514199E-21
  0.174999997       1.35017707E-21
  0.176249996       1.16500392E-21
  0.177499995       7.80313692E-22
  0.178749993       2.13764392E-22
  0.180000007      -4.87809975E-22
  0.181250006      -1.25005418E-21
  0.182500005      -1.97700993E-21
  0.183750004      -2.56113414E-21
  0.185000002      -2.89662636E-21
  0.186250001      -2.89467130E-21
  0.187500000      -2.49870725E-21
  0.188749999      -1.69754122E-21
  0.189999998      -5.34110532E-22
  0.191249996       8.92007965E-22
  0.192499995       2.42962979E-21
  0.193749994       3.88893916E-21
  0.194999993       5.06174395E-21
  0.196250007       5.74722666E-21
  0.197500005       5.78038901E-21
  0.198750004       5.05962268E-21
  0.200000003       3.56948589E-21
  0.201250002       1.39489803E-21
  0.202500001      -1.27634150E-21
  0.203749999      -4.16460114E-21
  0.204999998      -6.92329655E-21
  0.206249997      -9.17601955E-21
  0.207499996      -1.05624486E-20
  0.208749995      -1.07879748E-20
  0.209999993      -9.67083511E-21
  0.211250007      -7.18015551E-21
  0.212500006      -3.45873174E-21
  0.213750005       1.17428305E-21
  0.215000004       6.24350353E-21
  0.216250002       1.11602271E-20
  0.217500001       1.52850860E-20
  0.218750000       1.80044504E-20
  0.219999999       1.88120872E-20
  0.221249998       1.73860230E-20
  0.222499996       1.36500779E-20
  0.223749995       7.81044937E-21
  0.224999994       3.59992900E-22
  0.226249993      -7.95370429E-21
  0.227500007      -1.61960575E-20
  0.228750005      -2.33439368E-20
  0.230000004      -2.84052853E-20
  0.231250003      -3.05466717E-20
  0.232500002      -2.92132921E-20
  0.233750001      -2.42253704E-20
  0.234999999      -1.58365053E-20
  0.236249998      -4.74296518E-21
  0.237499997       7.96175072E-21
  0.238749996       2.08863250E-20
  0.239999995       3.24873053E-20
  0.241249993       4.12467538E-20
  0.242500007       4.58622794E-20
  0.243750006       4.54265362E-20
  0.245000005       3.95726695E-20
  0.246250004       2.85644917E-20
  0.247500002       1.33153654E-20
  0.248750001      -4.67251266E-21
  0.250000000      -2.34473230E-20
  0.251249999      -4.08141577E-20
  0.252499998      -5.45882400E-20
  0.253749996      -6.28664956E-20
  0.254999995      -6.42845287E-20
  0.256249994      -5.82252239E-20
  0.257499993      -4.49485777E-20
  0.258749992      -2.56200147E-20
  0.259999990      -2.22576531E-21
  0.261249989       2.26226353E-20
  0.262499988       4.59779619E-20
  0.263749987       6.49107432E-20
  0.264999986       7.68853523E-20
  0.266250014       8.01111563E-20
  0.267500013       7.38205188E-20
  0.268750012       5.84310950E-20
  0.270000011       3.55615737E-20
  0.271250010       7.88732385E-21
  0.272500008      -2.11573898E-20
  0.273750007      -4.78022506E-20
  0.275000006      -6.84407882E-20
  0.276250005      -8.01442242E-20
  0.277500004      -8.11183004E-20
  0.278750002      -7.10332821E-20
  0.280000001      -5.11684524E-20
  0.281250000      -2.43328344E-20
  0.282499999       5.44784827E-21
  0.283749998       3.34552940E-20
  0.284999996       5.49579381E-20
  0.286249995       6.59604289E-20
  0.287499994       6.39180877E-20
  0.288749993       4.83037903E-20
  0.289999992       2.09226935E-20
  0.291249990      -1.41050370E-20
  0.292499989      -5.07340307E-20
  0.293749988      -8.17457621E-20
  0.294999987      -9.97964264E-20
  0.296249986      -9.86401701E-20
  0.297500014      -7.43632333E-20
  0.298750013      -2.64389994E-20
  0.300000012       4.15874617E-20
  0.301250011       1.21949674E-19
  0.302500010       2.03153904E-19
  0.303750008       2.71146108E-19
  0.305000007       3.11084379E-19
  0.306250006       3.09547917E-19
  0.307500005       2.56922040E-19
  0.308750004       1.49629360E-19
  0.310000002      -8.15228580E-21
  0.311250001      -2.03628512E-19
  0.312500000      -4.15657198E-19
  0.313749999      -6.16300842E-19
  0.314999998      -7.73655048E-19
  0.316249996      -8.55759806E-19
  0.317499995      -8.35213415E-19
  0.318749994      -6.93946838E-19
  0.319999993      -4.27505475E-19
  0.321249992      -4.81496245E-20
  0.322499990       4.13858675E-19
  0.323749989       9.11262281E-19
  0.324999988       1.38334480E-18
  0.326249987       1.76191663E-18
  0.327499986       1.97932409E-18
  0.328750014       1.97770633E-18
  0.330000013       1.71843712E-18
  0.331250012       1.19049974E-18
  0.332500011       4.16497769E-19
  0.333750010      -5.44871624E-19
  0.335000008      -1.60075434E-18
  0.336250007      -2.63089736E-18
  0.337500006      -3.49905588E-18
  0.338750005      -4.06823555E-18
  0.340000004      -4.21833244E-18
  0.341250002      -3.86420566E-18
  0.342500001      -2.97189140E-18
  0.343750000      -1.57058179E-18
  0.344999999       2.41782722E-19
  0.346249998       2.30092550E-18
  0.347499996       4.38745530E-18
  0.348749995       6.24667153E-18
  0.349999994       7.61559796E-18
  0.351249993       8.25477613E-18
  0.352499992       7.98143678E-18
  0.353749990       6.70002648E-18
  0.354999989       4.42590390E-18
  0.356249988       1.29835044E-18
  0.357499987      -2.42011375E-18
  0.358749986      -6.35976284E-18
  0.360000014      -1.00749829E-17
  0.361250013      -1.30889114E-17
  0.362500012      -1.49475060E-17
  0.363750011      -1.52775710E-17
  0.365000010      -1.38420520E-17
  0.366250008      -1.05855395E-17
  0.367500007      -5.66324781E-18
  0.368750006       5.51992150E-19
  0.370000005       7.48812860E-18
  0.371250004       1.44183735E-17
  0.372500002       2.05293721E-17
  0.373750001       2.50075360E-17
  0.375000000       2.71352117E-17
  0.376249999       2.63862823E-17
  0.377499998       2.25097186E-17
  0.378749996       1.55898647E-17
  0.379999995       6.07382966E-18
  0.381249994      -5.24074629E-18
  0.382499993      -1.72602617E-17
  0.383749992      -2.86900217E-17
  0.384999990      -3.81624176E-17
  0.386249989      -4.43868260E-17
  0.387499988      -4.63059082E-17
  0.388749987      -4.32408367E-17
  0.389999986      -3.50074548E-17
  0.391250014      -2.19871936E-17
  0.392500013      -5.14020166E-18
  0.393750012       1.40462911E-17
  0.395000011       3.36745294E-17
  0.396250010       5.16103825E-17
  0.397500008       6.57005208E-17
  0.398750007       7.40118199E-17
  0.400000006       7.50677986E-17
  0.401250005       6.80551202E-17
  0.402500004       5.29742545E-17
  0.403750002       3.07125180E-17
  0.405000001       3.02473418E-18
  0.406250000      -2.75841127E-17
  0.407499999      -5.80692304E-17
  0.408749998      -8.51335676E-17
  0.409999996      -1.05566828E-16
  0.411249995      -1.16602529E-16
  0.412499994      -1.16255047E-16
  0.413749993      -1.03597913E-16
  0.414999992      -7.89483544E-17
  0.416249990      -4.39307087E-17
  0.417499989      -1.40285603E-18
  0.418749988       4.47562978E-17
  0.419999987       8.99851738E-17
  0.421249986       1.29475749E-16
  0.422500014       1.58667310E-16
  0.423750013       1.73748123E-16
  0.425000012       1.72111602E-16
  0.426250011       1.52714680E-16
  0.427500010       1.16293693E-16
  0.428750008       6.54054159E-17
  0.430000007       4.27806935E-18
  0.431250006      -6.15235896E-17
  0.432500005      -1.25594525E-16
  0.433750004      -1.81303869E-16
  0.435000002      -2.22469233E-16
  0.436250001      -2.44022754E-16
  0.437500000      -2.42598389E-16
  0.438749999      -2.16974027E-16
  0.439999998      -1.68314579E-16
  0.441249996      -1.00180049E-16
  0.442499995      -1.82863908E-17
  0.443749994       6.99681508E-17
  0.444999993       1.56172600E-16
  0.446249992       2.31708033E-16
  0.447499990       2.88609907E-16
  0.448749989       3.20400800E-16
  0.449999988       3.22806427E-16
  0.451249987       2.94275895E-16
  0.452499986       2.36245695E-16
  0.453750014       1.53110245E-16
  0.455000013       5.18924246E-17
  0.456250012      -5.83623369E-17
  0.457500011      -1.67414871E-16
  0.458750010      -2.64805925E-16
  0.460000008      -3.40879278E-16
  0.461250007      -3.87751566E-16
  0.462500006      -4.00128915E-16
  0.463750005      -3.75884317E-16
  0.465000004      -3.16332527E-16
  0.466250002      -2.26169602E-16
  0.467500001      -1.13077919E-16
  0.468750000       1.29676906E-17
  0.469999999       1.40626422E-16
  0.471249998       2.58259366E-16
  0.472499996       3.55032960E-16
  0.473749995       4.21947874E-16
  0.474999994       4.52691306E-16
  0.476249993       4.44228017E-16
  0.477499992       3.97074117E-16
  0.478749990       3.15228711E-16
  0.479999989       2.05775378E-16
  0.481249988       7.81977773E-17
  0.482499987      -5.65174793E-17
  0.483749986      -1.86897793E-16
  0.485000014      -3.02018915E-16
  0.486250013      -3.92455749E-16
  0.487500012      -4.51061085E-16
  0.488750011      -4.73505341E-16
  0.490000010      -4.58537210E-16
  0.491250008      -4.07957167E-16
  0.492500007      -3.26324790E-16
  0.493750006      -2.20446545E-16
  0.495000005      -9.87105198E-17
  0.496250004       2.96566517E-17
  0.497500002       1.55334037E-16
  0.498750001       2.69584144E-16
  0.500000000       3.64812167E-16
  0.501250029       4.34975162E-16
  0.502499998       4.75831505E-16
  0.503750026       4.85041241E-16
  0.504999995       4.62143558E-16
  0.506250024       4.08446513E-16
  0.507499993       3.26866520E-16
  0.508750021       2.21748064E-16
  0.509999990       9.86835073E-17
  0.511250019      -3.56626017E-17
  0.512499988      -1.73735523E-16
  0.513750017      -3.07301965E-16
  0.514999986      -4.27721145E-16
  0.516250014      -5.26304134E-16
  0.517499983      -5.94780659E-16
  0.518750012      -6.25874127E-16
  0.519999981      -6.13963309E-16
  0.521250010      -5.55781727E-16
  0.522499979      -4.51083002E-16
  0.523750007      -3.03181017E-16
  0.524999976      -1.19267056E-16
  0.526250005       8.95879220E-17
  0.527499974       3.08817572E-16
  0.528750002       5.21166932E-16
  0.529999971       7.07911333E-16
  0.531250000       8.50423514E-16
  0.532500029       9.31970447E-16
  0.533749998       9.39575638E-16
  0.535000026       8.65747558E-16
  0.536249995       7.09864061E-16
  0.537500024       4.79011743E-16
  0.538749993       1.88118593E-16
  0.540000021      -1.40721210E-16
  0.541249990      -4.79749668E-16
  0.542500019      -7.97800798E-16
  0.543749988      -1.06314260E-15
  0.545000017      -1.24665303E-15
  0.546249986      -1.32501406E-15
  0.547500014      -1.28357658E-15
  0.548749983      -1.11855190E-15
  0.550000012      -8.38233069E-16
  0.551249981      -4.63030084E-16
  0.552500010      -2.42205448E-17
  0.553749979       4.38547153E-16
  0.555000007       8.80818974E-16
  0.556249976       1.25765578E-15
  0.557500005       1.52828905E-15
  0.558749974       1.66062546E-15
  0.560000002       1.63509779E-15
  0.561249971       1.44739910E-15
  0.562500000       1.10973365E-15
  0.563750029       6.50360579E-16
  0.564999998       1.11384422E-16
  0.566250026      -4.55060828E-16
  0.567499995      -9.91898239E-16
  0.568750024      -1.44297081E-15
  0.569999993      -1.75907197E-15
  0.571250021      -1.90348526E-15
  0.572499990      -1.85640103E-15
  0.573750019      -1.61766638E-15
  0.574999988      -1.20749703E-15
  0.576250017      -6.64981109E-16
  0.577499986      -4.44559452E-17
  0.578750014       5.89923878E-16
  0.579999983       1.17088932E-15
  0.581250012       1.63532787E-15
  0.582499981       1.93132660E-15
  0.583750010       2.02419021E-15
  0.584999979       1.90072012E-15
  0.586250007       1.57121467E-15
  0.587499976       1.06889216E-15
  0.588750005       4.46719671E-16
  0.589999974      -2.28070133E-16
  0.591250002      -8.81219250E-16
  0.592499971      -1.43966643E-15
  0.593750000      -1.83983836E-15
  0.595000029      -2.03506145E-15
  0.596249998      -2.00121550E-15
  0.597500026      -1.73993347E-15
  0.598749995      -1.27890868E-15
  0.600000024      -6.69200074E-16
  0.601249993       2.02305713E-17
  0.602500021       7.10183975E-16
  0.603749990       1.32025236E-15
  0.605000019       1.77819045E-15
  0.606249988       2.02853655E-15
  0.607500017       2.03945099E-15
  0.608749986       1.80692181E-15
  0.610000014       1.35577184E-15
  0.611249983       7.37270500E-16
  0.612500012       2.35451667E-17
  0.613749981      -7.00621555E-16
  0.615000010      -1.34769750E-15
  0.616249979      -1.83786922E-15
  0.617500007      -2.10883146E-15
  0.618749976      -2.12370515E-15
  0.620000005      -1.87608036E-15
  0.621249974      -1.39149853E-15
  0.622500002      -7.25097102E-16
  0.623749971       4.44052887E-17
  0.625000000       8.23756429E-16
  0.626250029       1.51623937E-15
  0.627499998       2.03347433E-15
  0.628750026       2.30653721E-15
  0.629999995       2.29501650E-15
  0.631250024       1.99283771E-15
  0.632499993       1.43003948E-15
  0.633750021       6.70155421E-16
  0.634999990      -1.96625173E-16
  0.636250019      -1.06381652E-15
  0.637499988      -1.82136542E-15
  0.638750017      -2.36926466E-15
  0.639999986      -2.63041084E-15
  0.641250014      -2.56109242E-15
  0.642499983      -2.15772792E-15
  0.643750012      -1.45888413E-15
  0.644999981      -5.42137615E-16
  0.646250010       4.84033854E-16
  0.647499979       1.49253473E-15
  0.648750007       2.35276890E-15
  0.649999976       2.94684922E-15
  0.651250005       3.18495251E-15
  0.652499974       3.01789602E-15
  0.653750002       2.44526998E-15
  0.654999971       1.51792635E-15
  0.656250000       3.34264241E-16
  0.657500029      -9.69523970E-16
  0.658749998      -2.23433993E-15
  0.660000026      -3.29663127E-15
  0.661249995      -4.00834032E-15
  0.662500024      -4.25600217E-15
  0.663749993      -3.97664647E-15
  0.665000021      -3.16842224E-15
  0.666249990      -1.89440761E-15
  0.667500019      -2.78807486E-16
  0.668749988       1.50439521E-15
  0.670000017       3.24936259E-15
  0.671249986       4.74110895E-15
  0.672500014       5.78054797E-15
  0.673749983       6.20905093E-15
  0.675000012       5.92961137E-15
  0.676249981       4.92196743E-15
  0.677500010       3.24962263E-15
  0.678749979       1.05754107E-15
  0.680000007      -1.43967522E-15
  0.681249976      -3.97823974E-15
  0.682500005      -6.27234462E-15
  0.683749974      -8.04526293E-15
  0.685000002      -9.06105449E-15
  0.686249971      -9.15331416E-15
  0.687500000      -8.24760470E-15
  0.688750029      -6.37477885E-15
  0.689999998      -3.67329898E-15
  0.691250026      -3.79822358E-16
  0.692499995       3.19140712E-15
  0.693750024       6.67856129E-15
  0.694999993       9.70872213E-15
  0.696250021       1.19371540E-14
  0.697499990       1.30852064E-14
  0.698750019       1.29727179E-14
  0.699999988       1.15412517E-14
  0.701250017       8.86537124E-15
  0.702499986       5.15038384E-15
  0.703750014       7.16365674E-16
  0.704999983      -4.03024333E-15
  0.706250012      -8.63484699E-15
  0.707499981      -1.26389809E-14
  0.708750010      -1.56262247E-14
  0.709999979      -1.72650522E-14
  0.711250007      -1.73441736E-14
  0.712499976      -1.57965817E-14
  0.713750005      -1.27097361E-14
  0.714999974      -8.32060454E-15
  0.716250002      -2.99592398E-15
  0.717499971       2.80052979E-15
  0.718750000       8.55048759E-15
  0.720000029       1.37293995E-14
  0.721249998       1.78556019E-14
  0.722500026       2.05356277E-14
  0.723749995       2.15012927E-14
  0.725000024       2.06350084E-14
  0.726249993       1.79810170E-14
  0.727500021       1.37416002E-14
  0.728749990       8.25887701E-15
  0.730000019       1.98412640E-15
  0.731249988      -4.56228293E-15
  0.732500017      -1.08364271E-14
  0.733749986      -1.63175290E-14
  0.735000014      -2.05516095E-14
  0.736249983      -2.31883181E-14
  0.737500012      -2.40079292E-14
  0.738749981      -2.29367018E-14
  0.740000010      -2.00497696E-14
  0.741249979      -1.55620129E-14
  0.742500007      -9.80837133E-15
  0.743749976      -3.21583661E-15
  0.745000005       3.73018995E-15
  0.746249974       1.05221516E-14
  0.747500002       1.66664168E-14
  0.748749971       2.17166949E-14
  0.750000000       2.53027444E-14
  0.751250029       2.71531421E-14
  0.752499998       2.71112241E-14
  0.753750026       2.51438901E-14
  0.754999995       2.13435752E-14
  0.756250024       1.59235943E-14
  0.757499993       9.20747768E-15
  0.758750021       1.61275116E-15
  0.759999990      -6.37028577E-15
  0.761250019      -1.42043520E-14
  0.762499988      -2.13348490E-14
  0.763750017      -2.72229393E-14
  0.764999986      -3.13805615E-14
  0.766250014      -3.34061053E-14
  0.767499983      -3.30187063E-14
  0.768750012      -3.00884738E-14
  0.769999981      -2.46600988E-14
  0.771250010      -1.69667289E-14
  0.772499979      -7.43128263E-15
  0.773750007       3.34667249E-15
  0.774999976       1.46202816E-14
  0.776250005       2.55402507E-14
  0.777499974       3.52136397E-14
  0.778750002       4.27738052E-14
  0.779999971       4.74558001E-14
  0.781250000       4.86712077E-14
  0.782500029       4.60755871E-14
  0.783749998       3.96207759E-14
  0.785000026       2.95859833E-14
  0.786249995       1.65814475E-14
  0.787500024       1.52207289E-15
  0.788749993      -1.44295010E-14
  0.790000021      -2.99482525E-14
  0.791249990      -4.36542722E-14
  0.792500019      -5.42346963E-14
  0.793749988      -6.05690289E-14
  0.795000017      -6.18459141E-14
  0.796249986      -5.76594978E-14
  0.797500014      -4.80734904E-14
  0.798749983      -3.36450872E-14
  0.800000012      -1.54043360E-14
  0.801249981       5.21414466E-15
  0.802500010       2.64826647E-14
  0.803749979       4.65254937E-14
  0.805000007       6.34866373E-14
  0.806249976       7.57059278E-14
  0.807500005       8.18846401E-14
  0.808749974       8.12259873E-14
  0.810000002       7.35309844E-14
  0.811249971       5.92451367E-14
  0.812500000       3.94432310E-14
  0.813750029       1.57531967E-14
  0.814999998      -9.77882258E-15
  0.816250026      -3.48646723E-14
  0.817499995      -5.71834721E-14
  0.818750024      -7.46005295E-14
  0.819999993      -8.53751003E-14
  0.821250021      -8.83386449E-14
  0.822499990      -8.30201860E-14
  0.823750019      -6.97116992E-14
  0.824999988      -4.94582572E-14
  0.826250017      -2.39772886E-14
  0.827499986       4.49161540E-15
  0.828750014       3.33863728E-14
  0.829999983       6.00603890E-14
  0.831250012       8.20363132E-14
  0.832499981       9.72401210E-14
  0.833750010       1.04203599E-13
  0.834999979       1.02211777E-13
  0.836250007       9.13807129E-14
  0.837499976       7.26530788E-14
  0.838750005       4.77151176E-14
  0.839999974       1.88424461E-14
  0.841250002      -1.13094704E-14
  0.842499971      -3.99578103E-14
  0.843750000      -6.44529731E-14
  0.845000029      -8.25290221E-14
  0.846249998      -9.25158591E-14
  0.847500026      -9.34953205E-14
  0.848749995      -8.53839162E-14
  0.850000024      -6.89338723E-14
  0.851249993      -4.56590467E-14
  0.852500021      -1.76905287E-14
  0.853749990       1.24347622E-14
  0.855000019       4.20069219E-14
  0.856249988       6.84051069E-14
  0.857500017       8.93297887E-14
  0.858749986       1.03014175E-13
  0.860000014       1.08365506E-13
  0.861249983       1.05048376E-13
  0.862500012       9.35046989E-14
  0.863749981       7.48897472E-14
  0.865000010       5.09471310E-14
  0.866249979       2.38347973E-14
  0.867500007      -4.07979899E-15
  0.868749976      -3.04385864E-14
  0.870000005      -5.30988793E-14