 -0.200000003       0.00000000    
 -0.198750004       0.00000000    
 -0.197500005       0.00000000    
 -0.196250007       0.00000000    
 -0.194999993       0.00000000    
 -0.193749994       0.00000000    
 -0.192499995       0.00000000    
 -0.191249996       0.00000000    
 -0.189999998       0.00000000    
 -0.188749999       0.00000000    
 -0.187500000       0.00000000    
 -0.186250001       0.00000000    
 -0.185000002       0.00000000    
 -0.183750004       0.00000000    
 -0.182500005       0.00000000    
 -0.181250006       0.00000000    
 -0.180000007       0.00000000    
 -0.178749993       0.00000000    
 -0.177499995       0.00000000    
 -0.176249996       0.00000000    
 -0.174999997       0.00000000    
 -0.173749998       0.00000000    
 -0.172499999       0.00000000    
 -0.171250001       0.00000000    
 -0.170000002       0.00000000    
 -0.168750003       0.00000000    
 -0.167500004       0.00000000    
 -0.166250005       0.00000000    
 -0.165000007       0.00000000    
 -0.163749993       0.00000000    
 -0.162499994       0.00000000    
 -0.161249995       0.00000000    
 -0.159999996       0.00000000    
 -0.158749998       0.00000000    
 -0.157499999       0.00000000    
 -0.156250000       0.00000000    
 -0.155000001       0.00000000    
 -0.153750002       0.00000000    
 -0.152500004       0.00000000    
 -0.151250005       0.00000000    
 -0.150000006       0.00000000    
 -0.148750007       0.00000000    
 -0.147499993       0.00000000    
 -0.146249995       0.00000000    
 -0.144999996       0.00000000    
 -0.143749997       0.00000000    
 -0.142499998       0.00000000    
 -0.141249999       0.00000000    
 -0.140000001       0.00000000    
 -0.138750002       0.00000000    
 -0.137500003       0.00000000    
 -0.136250004       0.00000000    
 -0.135000005       0.00000000    
 -0.133750007       0.00000000    
 -0.132499993       0.00000000    
 -0.131249994       0.00000000    
 -0.129999995       0.00000000    
 -0.128749996       0.00000000    
 -0.127499998       0.00000000    
 -0.126249999       0.00000000    
 -0.125000000       0.00000000    
 -0.123750001       0.00000000    
 -0.122500002       0.00000000    
 -0.121250004       0.00000000    
 -0.119999997       0.00000000    
 -0.118749999       0.00000000    
 -0.117500000       0.00000000    
 -0.116250001       0.00000000    
 -0.115000002       0.00000000    
 -0.113750003       0.00000000    
 -0.112499997       0.00000000    
 -0.111249998       0.00000000    
 -0.109999999       0.00000000    
 -0.108750001       0.00000000    
 -0.107500002       0.00000000    
 -0.106250003      -1.40129846E-45
 -0.104999997      -2.80259693E-45
 -0.103749998      -4.20389539E-45
 -0.102499999      -5.60519386E-45
 -0.101250000      -7.00649232E-45
 -0.100000001      -5.60519386E-45
  -9.87500027E-02   1.40129846E-45
  -9.74999964E-02   1.54142831E-44
  -9.62499976E-02   4.06376555E-44
  -9.49999988E-02   7.98740125E-44
  -9.37500000E-02   1.27518160E-43
  -9.25000012E-02   1.69557114E-43
  -9.12500024E-02   1.80767502E-43
  -9.00000036E-02   1.16307773E-43
  -8.87499973E-02  -8.54792063E-44
  -8.74999985E-02  -4.84849269E-43
  -8.62499997E-02  -1.12244007E-42
  -8.50000009E-02  -1.97583083E-42
  -8.37500021E-02  -2.89648393E-42
  -8.25000033E-02  -3.54668641E-42
  -8.12499970E-02  -3.35330723E-42
  -7.99999982E-02  -1.50919845E-42
  -7.87499994E-02   2.91470081E-42
  -7.75000006E-02   1.06961112E-41
  -7.62500018E-02   2.19821690E-41
  -7.50000030E-02   3.56224083E-41
  -7.37499967E-02   4.83854347E-41
  -7.24999979E-02   5.43059207E-41
  -7.12499991E-02   4.45234561E-41
  -7.00000003E-02   8.13453759E-42
  -6.87500015E-02  -6.53957967E-41
  -6.75000027E-02  -1.81805864E-40
  -6.62499964E-02  -3.35582956E-40
  -6.49999976E-02  -5.02246389E-40
  -6.37499988E-02  -6.31212091E-40
  -6.25000000E-02  -6.42421077E-40
  -6.12500012E-02  -4.31122084E-40
  -5.99999987E-02   1.14334744E-40
  -5.87499999E-02   1.07775406E-39
  -5.75000010E-02   2.46253542E-39
  -5.62499985E-02   4.12624945E-39
  -5.49999997E-02   5.71568904E-39
  -5.37500009E-02   6.62575392E-39
  -5.24999984E-02   6.01461403E-39
  -5.12499996E-02   2.91196687E-39
  -5.00000007E-02  -3.54805128E-39
  -4.87499982E-02  -1.37578460E-38
  -4.74999994E-02  -2.71579658E-38
  -4.62500006E-02  -4.17320640E-38
  -4.50000018E-02  -5.36247439E-38
  -4.37499993E-02  -5.70943869E-38
  -4.25000004E-02  -4.50472391E-38
  -4.12500016E-02  -1.03749742E-38
  -3.99999991E-02   5.17953095E-38
  -3.87500003E-02   1.41052484E-37
  -3.75000015E-02   2.48298743E-37
  -3.62499990E-02   3.52837514E-37
  -3.50000001E-02   4.21181172E-37
  -3.37500013E-02   4.09044761E-37
  -3.24999988E-02   2.67914321E-37
  -3.12500000E-02  -4.29798670E-38
  -2.99999993E-02  -5.39611116E-37
  -2.87500005E-02  -1.19310004E-36
  -2.74999999E-02  -1.91088431E-36
  -2.62499992E-02  -2.52547632E-36
  -2.50000004E-02  -2.79862110E-36
  -2.37499997E-02  -2.44859997E-36
  -2.25000009E-02  -1.20600571E-36
  -2.12500002E-02   1.10204900E-36
  -1.99999996E-02   4.44767989E-36
  -1.87500007E-02   8.49681382E-36
  -1.75000001E-02   1.25321932E-35
  -1.62499994E-02   1.54422750E-35
  -1.49999997E-02   1.58148114E-35
  -1.37499999E-02   1.21646776E-35
  -1.25000002E-02   3.30308209E-36
  -1.12500004E-02  -1.11808619E-35
  -9.99999978E-03  -3.04017507E-35
  -8.75000004E-03  -5.17470808E-35
  -7.49999983E-03  -7.06970772E-35
  -6.25000009E-03  -8.10703958E-35
  -4.99999989E-03  -7.58407374E-35
  -3.74999992E-03  -4.85839334E-35
  -2.49999994E-03   4.52814285E-36
  -1.24999997E-03   8.24593560E-35
   0.00000000       1.77243782E-34
   1.24999997E-03   2.72770548E-34
   2.49999994E-03   3.45141442E-34
   3.74999992E-03   3.65237850E-34
   4.99999989E-03   3.03836109E-34
   6.25000009E-03   1.39087935E-34
   7.49999983E-03  -1.34528165E-34
   8.75000004E-03  -4.97466867E-34
   9.99999978E-03  -8.98961601E-34
   1.12500004E-02  -1.25619700E-33
   1.25000002E-02  -1.46135098E-33
   1.37499999E-02  -1.39809671E-33
   1.49999997E-02  -9.67376107E-34
   1.62499994E-02  -1.19765793E-34
   1.75000001E-02   1.11108286E-33
   1.87500007E-02   2.58204791E-33
   1.99999996E-02   4.03087445E-33
   2.12500002E-02   5.09265258E-33
   2.25000009E-02   5.34900843E-33
   2.37499997E-02   4.41090223E-33
   2.50000004E-02   2.02771159E-33
   2.62499992E-02  -1.79437009E-33
   2.74999999E-02  -6.69076911E-33
   2.87500005E-02  -1.18861162E-32
   2.99999993E-02  -1.62236955E-32
   3.12500000E-02  -1.83017300E-32
   3.24999988E-02  -1.67244017E-32
   3.37500013E-02  -1.04498237E-32
   3.50000001E-02   8.14013675E-34
   3.62499990E-02   1.62451203E-32
   3.75000015E-02   3.36777456E-32
   3.87500003E-02   4.96153537E-32
   3.99999991E-02   5.95758640E-32
   4.12500016E-02   5.88105290E-32
   4.25000004E-02   4.33617208E-32
   4.37499993E-02   1.13288408E-32
   4.50000018E-02  -3.58879131E-32
   4.62500006E-02  -9.26758688E-32
   4.74999994E-02  -1.48973855E-31
   4.87499982E-02  -1.91018196E-31
   5.00000007E-02  -2.03252189E-31
   5.12499996E-02  -1.71368010E-31
   5.24999984E-02  -8.61686025E-32
   5.37500009E-02   5.23694077E-32
   5.49999997E-02   2.31717631E-31
   5.62499985E-02   4.25140572E-31
   5.75000010E-02   5.92760847E-31
   5.87499999E-02   6.86056119E-31
   5.99999987E-02   6.55947618E-31
   6.12500012E-02   4.63864929E-31
   6.25000000E-02   9.42768040E-32
   6.37499988E-02  -4.33670476E-31
   6.49999976E-02  -1.05835512E-30
   6.62499964E-02  -1.67478304E-30
   6.75000027E-02  -2.14310958E-30
   6.87500015E-02  -2.30780424E-30
   7.00000003E-02  -2.02670122E-30
   7.12499991E-02  -1.20672611E-30
   7.24999979E-02   1.59419357E-31
   7.37499967E-02   1.96337536E-30
   7.50000030E-02   3.96675703E-30
   7.62500018E-02   5.81035234E-30
   7.75000006E-02   7.05229052E-30
   7.87499994E-02   7.23596180E-30
   7.99999982E-02   5.98225476E-30
   8.12499970E-02   3.09378076E-30
   8.25000033E-02  -1.34754629E-30
   8.37500021E-02  -6.91235291E-30
   8.50000009E-02  -1.28083204E-29
   8.62499997E-02  -1.79362488E-29
   8.74999985E-02  -2.10268457E-29
   8.87499973E-02  -2.08529854E-29
   9.00000036E-02  -1.64946872E-29
   9.12500024E-02  -7.61645409E-30
   9.25000012E-02   5.29749036E-30
   9.37500000E-02   2.08110287E-29
   9.49999988E-02   3.65634911E-29
   9.62499976E-02   4.94952681E-29
   9.74999964E-02   5.62797114E-29
   9.87500027E-02   5.39283375E-29
  0.100000001       4.04911484E-29
  0.101250000       1.57325380E-29
  0.102499999      -1.83642536E-29
  0.103749998      -5.74152277E-29
  0.104999997      -9.49010346E-29
  0.106250003      -1.22944711E-28
  0.107500002      -1.33577108E-28
  0.108750001      -1.20356911E-28
  0.109999999      -8.01016954E-29
  0.111249998      -1.43976278E-29
  0.112499997       6.94880339E-29
  0.113750003       1.58644013E-28
  0.115000002       2.35750027E-28
  0.116250001       2.81573967E-28
  0.117500000       2.78547465E-28
  0.118749999       2.14958843E-28
  0.119999997       8.90457742E-29
  0.121250004      -8.79067191E-29
  0.122500002      -2.90395569E-28
  0.123750001      -4.80242813E-28
  0.125000000      -6.11287998E-28
  0.126249999      -6.37125118E-28
  0.127499998      -5.21112202E-28
  0.128749996      -2.47186103E-28
  0.129999995       1.70568108E-28
  0.131249994       6.81967941E-28
  0.132499993       1.20070311E-27
  0.133750007       1.61195002E-27
  0.135000005       1.78827506E-27
  0.136250004       1.61294071E-27
  0.137500003       1.00796327E-27
  0.138750002      -3.74675437E-29
  0.140000001      -1.44392255E-27
  0.141249999      -3.03029361E-27
  0.142499998      -4.51970075E-27
  0.143749997      -5.56661855E-27
  0.144999996      -5.80596542E-27
  0.146249995      -4.92074754E-27
  0.147499993      -2.72022814E-27
  0.148750007       7.83739087E-28
  0.150000006       5.31766630E-27
  0.151250005       1.03210917E-26
  0.152500004       1.49693891E-26
  0.153750002       1.82539085E-26
  0.155000001       1.91202088E-26
  0.156250000       1.66543159E-26
  0.157499999       1.02951564E-26
  0.158749998       4.05824465E-29
  0.159999996      -1.33931033E-26
  0.161249995      -2.85001301E-26
  0.162499994      -4.30394406E-26
  0.163749993      -5.42372749E-26
  0.165000007      -5.91403043E-26
  0.166250005      -5.50947297E-26
  0.167500004      -4.02976774E-26
  0.168750003      -1.43411030E-26
  0.170000002       2.13502708E-26
  0.171250001       6.32906001E-26
  0.172499999       1.06006031E-25
  0.173749998       1.42470338E-25
  0.174999997       1.64915156E-25
  0.176249996       1.65965093E-25
  0.177499995       1.39979768E-25
  0.178749993       8.44225875E-26
  0.180000007       1.03009788E-27
  0.181250006      -1.03460883E-25
  0.182500005      -2.17250814E-25
  0.183750004      -3.24238793E-25
  0.185000002      -4.05663758E-25
  0.186250001      -4.42546876E-25
  0.187500000      -4.18707055E-25
  0.188749999      -3.23978518E-25
  0.189999998      -1.57150485E-25
  0.191249996       7.19055836E-26
  0.192499995       3.41430808E-25
  0.193749994       6.18693846E-25
  0.194999993       8.62825884E-25
  0.196250007       1.02950736E-24
  0.197500005       1.07712912E-24
  0.198750004       9.73747024E-25
  0.200000003       7.03893141E-25
  0.201250002       2.74159043E-25
  0.202500001      -2.83542272E-25
  0.203749999      -9.11964326E-25
  0.204999998      -1.53235659E-24
  0.206249997      -2.05223841E-24
  0.207499996      -2.37663714E-24
  0.208749995      -2.42169431E-24
  0.209999993      -2.12900720E-24
  0.211250007      -1.47868407E-24
  0.212500006      -4.98957185E-25
  0.213750005       7.29638405E-25
  0.215000004       2.07701988E-24
  0.216250002       3.37395573E-24
  0.217500001       4.42980463E-24
  0.218750000       5.05616374E-24
  0.219999999       5.09392375E-24
  0.221249998       4.44035998E-24
  0.222499996       3.07238801E-24
  0.223749995       1.06210911E-24
  0.224999994      -1.41868104E-24
  0.226249993      -4.10724177E-24
  0.227500007      -6.67254920E-24
  0.228750005      -8.75065337E-24
  0.230000004      -9.98956258E-24
  0.231250003      -1.00987591E-23
  0.232500002      -8.89714011E-24
  0.233750001      -6.35262232E-24
  0.234999999      -2.60690919E-24
  0.236249998       2.01984403E-24
  0.237499997       7.04766518E-24
  0.238749996       1.18791211E-23
  0.239999995       1.58626786E-23
  0.241249993       1.83711916E-23
  0.242500007       1.88869472E-23
  0.243750006       1.70828034E-23
  0.245000005       1.28882659E-23
  0.246250004       6.53008526E-24
  0.247500002      -1.46090867E-24
  0.248750001      -1.02815129E-23
  0.250000000      -1.89266727E-23
  0.251249999      -2.62940829E-23
  0.252499998      -3.13131962E-23
  0.253749996      -3.30847254E-23
  0.254999995      -3.10138866E-23
  0.256249994      -2.49195985E-23
  0.257499993      -1.51030008E-23
  0.258749992      -2.36212565E-24
  0.259999990       1.20550055E-23
  0.261249989       2.65594857E-23
  0.262499988       3.93855468E-23
  0.263749987       4.87943697E-23
  0.264999986       5.32958088E-23
  0.266250014       5.18614009E-23
  0.267500013       4.41003538E-23
  0.268750012       3.03717602E-23
  0.270000011       1.18118115E-23
  0.271250010      -9.73662853E-24
  0.272500008      -3.18931257E-23
  0.273750007      -5.19956493E-23
  0.275000006      -6.74186846E-23
  0.276250005      -7.59175438E-23
  0.277500004      -7.59553587E-23
  0.278750002      -6.69665032E-23
  0.280000001      -4.95134984E-23
  0.281250000      -2.53043575E-23
  0.282499999       2.94720170E-24
  0.283749998       3.18159720E-23
  0.284999996       5.75887204E-23
  0.286249995       7.67698481E-23
  0.287499994       8.66041794E-23
  0.288749993       8.55408643E-23
  0.289999992       7.35613741E-23
  0.291249990       5.23048259E-23
  0.292499989       2.49459985E-23
  0.293749988      -4.18631167E-24
  0.294999987      -3.02238771E-23
  0.296249986      -4.85387598E-23
  0.297500014      -5.55834865E-23
  0.298750013      -4.96608103E-23
  0.300000012      -3.14827004E-23
  0.301250011      -4.38968632E-24
  0.302500010       2.58638650E-23
  0.303750008       5.17970551E-23
  0.305000007       6.53287459E-23
  0.306250006       5.92293870E-23
  0.307500005       2.87092232E-23
  0.308750004      -2.71053175E-23
  0.310000002      -1.04084422E-22
  0.311250001      -1.92663625E-22
  0.312500000      -2.78278699E-22
  0.313749999      -3.42775310E-22
  0.314999998      -3.66762488E-22
  0.316249996      -3.32717523E-22
  0.317499995      -2.28487566E-22
  0.318749994      -5.06961208E-23
  0.319999993       1.92522779E-22
  0.321249992       4.80049805E-22
  0.322499990       7.78071055E-22
  0.323749989       1.04246366E-21
  0.324999988       1.22334277E-21
  0.326249987       1.27151170E-21
  0.327499986       1.14621171E-21
  0.328750014       8.23246557E-22
  0.330000013       3.02318308E-22
  0.331250012      -3.87694918E-22
  0.332500011      -1.18672519E-21
  0.333750010      -2.00571003E-21
  0.335000008      -2.73349548E-21
  0.336250007      -3.24833928E-21
  0.337500006      -3.43321313E-21
  0.338750005      -3.19339679E-21
  0.340000004      -2.47425675E-21
  0.341250002      -1.27668764E-21
  0.342500001       3.32405033E-22
  0.343750000       2.21695632E-21
  0.344999999       4.17767124E-21
  0.346249998       5.96778662E-21
  0.347499996       7.31816705E-21
  0.348749995       7.96983835E-21
  0.349999994       7.71072725E-21
  0.351249993       6.41224837E-21
  0.352499992       4.06072939E-21
  0.353749990       7.78542958E-22
  0.354999989      -3.16954346E-21
  0.356249988      -7.38799353E-21
  0.357499987      -1.13813412E-20
  0.358749986      -1.46030756E-20
  0.360000014      -1.65188017E-20
  0.361250013      -1.66774475E-20
  0.362500012      -1.47823202E-20
  0.363750011      -1.07526282E-20
  0.365000010      -4.76607009E-21
  0.366250008       2.72578085E-21
  0.367500007       1.10151054E-20
  0.368750006       1.91907922E-20
  0.370000005       2.62247354E-20
  0.371250004       3.10849014E-20
  0.372500002       3.28642993E-20
  0.373750001       3.09114972E-20
  0.375000000       2.49463439E-20
  0.376249999       1.51443054E-20
  0.377499998       2.17482908E-21
  0.378749996      -1.28168946E-20
  0.379999995      -2.82895123E-20
  0.381249994      -4.24440363E-20
  0.382499993      -5.34112428E-20
  0.383749992      -5.94706090E-20
  0.384999990      -5.92774623E-20
  0.386249989      -5.20713265E-20
  0.387499988      -3.78378391E-20
  0.388749987      -1.73990349E-20
  0.389999986       7.58705648E-21
  0.391250014       3.47275721E-20
  0.392500013       6.10956311E-20
  0.393750012       8.35174602E-20
  0.395000011       9.89205714E-20
  0.396250010       1.04707850E-19
  0.397500008       9.91155081E-20
  0.398750007       8.15106296E-20
  0.400000006       5.25867150E-20
  0.401250005       1.44236630E-20
  0.402500004      -2.96085358E-20
  0.403750002      -7.51067007E-20
  0.405000001      -1.17037656E-19
  0.406250000      -1.50254864E-19
  0.407499999      -1.70079139E-19
  0.408749998      -1.72882105E-19
  0.409999996      -1.56604974E-19
  0.411249995      -1.21146559E-19
  0.412499994      -6.85636762E-20
  0.413749993      -3.04370214E-21
  0.414999992       6.93681869E-20
  0.416249990       1.41277951E-19
  0.417499989       2.04650674E-19
  0.418749988       2.51654450E-19
  0.419999987       2.75556170E-19
  0.421249986       2.71572287E-19
  0.422500014       2.37574363E-19
  0.423750013       1.74557999E-19
  0.425000012       8.68023431E-20
  0.426250011      -1.83229666E-20
  0.427500010      -1.30910470E-19
  0.428750008      -2.39394419E-19
  0.430000007      -3.31684898E-19
  0.431250006      -3.96450504E-19
  0.432500005      -4.24418256E-19
  0.433750004      -4.09548366E-19
  0.435000002      -3.49943850E-19
  0.436250001      -2.48375429E-19
  0.437500000      -1.12335043E-19
  0.438749999       4.64217152E-20
  0.439999998       2.12830483E-19
  0.441249996       3.69900255E-19
  0.442499995       5.00400844E-19
  0.443749994       5.88691776E-19
  0.444999993       6.22502111E-19
  0.446249992       5.94464359E-19
  0.447499990       5.03219100E-19
  0.448749989       3.53944561E-19
  0.449999988       1.58217447E-19
  0.451249987      -6.68185190E-20
  0.452499986      -2.99926720E-19
  0.453750014      -5.17771016E-19
  0.455000013      -6.97241602E-19
  0.456250012      -8.17879794E-19
  0.457500011      -8.64146384E-19
  0.458750010      -8.27281787E-19
  0.460000008      -7.06540043E-19
  0.461250007      -5.09636367E-19
  0.462500006      -2.52327155E-19
  0.463750005       4.28663379E-20
  0.465000004       3.48687260E-19
  0.466250002       6.35735295E-19
  0.467500001       8.75364193E-19
  0.468750000       1.04258713E-18
  0.469999999       1.11868227E-18
  0.471249998       1.09321772E-18
  0.472499996       9.65271281E-19
  0.473749995       7.43705112E-19
  0.474999994       4.46456053E-19
  0.476249993       9.89082735E-20
  0.477499992      -2.68484164E-19
  0.478749990      -6.23076278E-19
  0.479999989      -9.33111016E-19
  0.481249988      -1.17067812E-18
  0.482499987      -1.31425123E-18
  0.483749986      -1.35055433E-18
  0.485000014      -1.27559109E-18
  0.486250013      -1.09476589E-18
  0.487500012      -8.22132122E-19
  0.488750011      -4.78895492E-19
  0.490000010      -9.13754757E-20
  0.491250008       3.11326432E-19
  0.492500007       6.99692848E-19
  0.493750006       1.04595644E-18
  0.495000005       1.32588450E-18
  0.496250004       1.52007466E-18
  0.497500002       1.61473710E-18
  0.498750001       1.60201579E-18
  0.500000000       1.47995774E-18
  0.501250029       1.25227297E-18
  0.502499998       9.28023545E-19
  0.503750026       5.21347073E-19
  0.504999995       5.12573129E-20
  0.506250024      -4.58510039E-19
  0.507499993      -9.79714372E-19
  0.508750021      -1.48005680E-18
  0.509999990      -1.92405168E-18
  0.511250019      -2.27449998E-18
  0.512499988      -2.49468512E-18
  0.513750017      -2.55129860E-18
  0.514999986      -2.41796908E-18
  0.516250014      -2.07911475E-18
  0.517499983      -1.53369543E-18
  0.518750012      -7.98336825E-19
  0.519999981       9.07474582E-20
  0.521250010       1.07757490E-18
  0.522499979       2.08837235E-18
  0.523750007       3.03592490E-18
  0.524999976       3.82622856E-18
  0.526250005       4.36707192E-18
  0.527499974       4.57784333E-18
  0.528750002       4.39960162E-18
  0.529999971       3.80424955E-18
  0.531250000       2.80158898E-18
  0.532500029       1.44313580E-18
  0.533749998      -1.78202182E-19
  0.535000026      -1.93307270E-18
  0.536249995      -3.66524929E-18
  0.537500024      -5.20525652E-18
  0.538749993      -6.38693076E-18
  0.540000021      -7.06531688E-18
  0.541249990      -7.13397535E-18
  0.542500019      -6.53965022E-18
  0.543749988      -5.29236360E-18
  0.545000017      -3.46936610E-18
  0.546249986      -1.21196715E-18
  0.547500014       1.28497266E-18
  0.548749983       3.79024703E-18
  0.550000012       6.05872451E-18
  0.551249981       7.85676246E-18
  0.552500010       8.98789638E-18
  0.553749979       9.31582635E-18
  0.555000007       8.78190111E-18
  0.556249976       7.41472872E-18
  0.557500005       5.33037337E-18
  0.558749974       2.72263500E-18
  0.560000002      -1.55934764E-19
  0.561249971      -3.02045600E-18
  0.562500000      -5.58476160E-18
  0.563750029      -7.59353126E-18
  0.564999998      -8.85168124E-18
  0.566250026      -9.24733496E-18
  0.567499995      -8.76532110E-18
  0.568750024      -7.48920393E-18
  0.569999993      -5.59120245E-18
  0.571250021      -3.31086319E-18
  0.572499990      -9.24841278E-19
  0.573750019       1.28860874E-18
  0.574999988       3.08597119E-18
  0.576250017       4.29085922E-18
  0.577499986       4.81796518E-18
  0.578750014       4.68498266E-18
  0.579999983       4.01033332E-18
  0.581250012       2.99633087E-18
  0.582499981       1.89937460E-18
  0.583750010       9.90639670E-19
  0.584999979       5.12254135E-19
  0.586250007       6.34924606E-19
  0.587499976       1.42319899E-18
  0.588750005       2.81396898E-18
  0.589999974       4.61242982E-18
  0.591250002       6.50765653E-18
  0.592499971       8.10744616E-18
  0.593750000       8.98938696E-18
  0.595000029       8.76264517E-18
  0.596249998       7.13296371E-18
  0.597500026       3.96222450E-18
  0.598749995      -6.86188298E-19
  0.600000024      -6.52399210E-18
  0.601249993      -1.30421939E-17
  0.602500021      -1.95454705E-17
  0.603749990      -2.52156762E-17
  0.605000019      -2.91995782E-17
  0.606249988      -3.07123393E-17
  0.607500017      -2.91453979E-17
  0.608749986      -2.41657739E-17
  0.610000014      -1.57935249E-17
  0.611249983      -4.44555275E-18
  0.612500012       9.06314087E-18
  0.613749981       2.35653036E-17
  0.615000010       3.76337268E-17
  0.616249979       4.97137302E-17
  0.617500007       5.82842114E-17
  0.618749976       6.20312998E-17
  0.620000005       6.00157452E-17
  0.621249974       5.18142859E-17
  0.622500002       3.76166141E-17
  0.623749971       1.82631437E-17
  0.625000000      -4.78566626E-18
  0.626250029      -2.95505509E-17
  0.627499998      -5.36996389E-17
  0.628750026      -7.47661887E-17
  0.629999995      -9.03977516E-17
  0.631250024      -9.86117412E-17
  0.632499993      -9.80298626E-17
  0.633750021      -8.80645994E-17
  0.634999990      -6.90342175E-17
  0.636250019      -4.21894604E-17
  0.637499988      -9.64356523E-18
  0.638750017       2.57925337E-17
  0.639999986       6.08575769E-17
  0.641250014       9.21479798E-17
  0.642499983       1.16456786E-16
  0.643750012       1.31109080E-16
  0.644999981       1.34257951E-16
  0.646250010       1.25108024E-16
  0.647499979       1.04039489E-16
  0.648750007       7.26155787E-17
  0.649999976       3.34681246E-17
  0.651250005      -9.93123714E-18
  0.652499974      -5.35939616E-17
  0.653750002      -9.34005496E-17
  0.654999971      -1.25510748E-16
  0.656250000      -1.46755340E-16
  0.657500029      -1.54967695E-16
  0.658749998      -1.49218591E-16
  0.660000026      -1.29927456E-16
  0.661249995      -9.88359534E-17
  0.662500024      -5.88443053E-17
  0.663749993      -1.37258265E-17
  0.665000021       3.22514842E-17
  0.666249990       7.47568251E-17
  0.667500019       1.09836178E-16
  0.668749988       1.34312532E-16
  0.670000017       1.46103416E-16
  0.671249986       1.44421420E-16
  0.672500014       1.29835950E-16
  0.673749983       1.04189777E-16
  0.675000012       7.03802588E-17
  0.676249981       3.20300943E-17
  0.677500010      -6.91509426E-18
  0.678749979      -4.26168382E-17
  0.680000007      -7.17531271E-17
  0.681249976      -9.18610474E-17
  0.682500005      -1.01574881E-16
  0.683749974      -1.00733982E-16
  0.685000002      -9.03502318E-17
  0.686249971      -7.24411164E-17
  0.687500000      -4.97504371E-17
  0.688750029      -2.53915414E-17
  0.689999998      -2.45682072E-18
  0.691250026       1.63591493E-17
  0.692499995       2.90776650E-17
  0.693750024       3.46575740E-17
  0.694999993       3.30950662E-17
  0.696250021       2.53912105E-17
  0.697499990       1.33931733E-17
  0.698750019      -4.69546128E-19
  0.699999988      -1.35198155E-17
  0.701250017      -2.31960899E-17
  0.702499986      -2.73986621E-17
  0.703750014      -2.47760545E-17
  0.704999983      -1.49165662E-17
  0.706250012       1.57788662E-18
  0.707499981       2.31436582E-17
  0.708750010       4.74254641E-17
  0.709999979       7.15427585E-17
  0.711250007       9.24191958E-17
  0.712499976       1.07135083E-16
  0.713750005       1.13261077E-16
  0.714999974       1.09134941E-16
  0.716250002       9.40518121E-17
  0.717499971       6.83497355E-17
  0.718750000       3.33862900E-17
  0.720000029      -8.58491963E-18
  0.721249998      -5.46175613E-17
  0.722500026      -1.01327534E-16
  0.723749995      -1.45168159E-16
  0.725000024      -1.82695557E-16
  0.726249993      -2.10799951E-16
  0.727500021      -2.26887383E-16
  0.728749990      -2.29006898E-16
  0.730000019      -2.15928418E-16
  0.731249988      -1.87183733E-16
  0.732500017      -1.43087873E-16
  0.733749986      -8.47569688E-17
  0.735000014      -1.41338085E-17
  0.736249983       6.59770837E-17
  0.737500012       1.51874410E-16
  0.738749981       2.38946406E-16
  0.740000010       3.21708963E-16
  0.741249979       3.93930672E-16
  0.742500007       4.48877911E-16
  0.743749976       4.79702710E-16
  0.745000005       4.79979902E-16
  0.746249974       4.44375295E-16
  0.747500002       3.69400915E-16
  0.748749971       2.54185244E-16
  0.750000000       1.01165340E-16
  0.751250029      -8.34065733E-17
  0.752499998      -2.89251005E-16
  0.753750026      -5.02238339E-16
  0.754999995      -7.05020727E-16
  0.756250024      -8.78141026E-16
  0.757499993      -1.00158512E-15
  0.758750021      -1.05668482E-15
  0.759999990      -1.02821965E-15
  0.761250019      -9.06513718E-16
  0.762499988      -6.89294766E-16
  0.763750017      -3.83068718E-16
  0.764999986      -3.78413045E-18
  0.766250014       4.23393442E-16
  0.767499983       8.65300695E-16
  0.768750012       1.28299721E-15
  0.769999981       1.63488307E-15
  0.771250010       1.88049721E-15
  0.772499979       1.98467739E-15
  0.773750007       1.92168673E-15
  0.774999976       1.67886303E-15
  0.776250005       1.25935715E-15
  0.777499974       6.83566653E-16
  0.778750002      -1.10228790E-17
  0.779999971      -7.71742253E-16
  0.781250000      -1.53436895E-15
  0.782500029      -2.22828026E-15
  0.783749998      -2.78274591E-15
  0.785000026      -3.13382031E-15
  0.786249995      -3.23118590E-15
  0.787500024      -3.04424234E-15
  0.788749993      -2.56676013E-15
  0.790000021      -1.81950512E-15
  0.791249990      -8.50405250E-16
  0.792500019       2.67951514E-16
  0.793749988       1.44343933E-15
  0.795000017       2.57181776E-15
  0.796249986       3.54587601E-15
  0.797500014       4.26550715E-15
  0.798749983       4.64777058E-15
  0.800000012       4.63593965E-15
  0.801249981       4.20657399E-15
  0.802500010       3.37379449E-15
  0.803749979       2.19017330E-15
  0.805000007       7.43954702E-16
  0.806249976      -8.47321468E-16
  0.807500005      -2.44636350E-15
  0.808749974      -3.90806518E-15
  0.810000002      -5.09279237E-15
  0.811249971      -5.87978212E-15
  0.812500000      -6.17936497E-15
  0.813750029      -5.94275817E-15
  0.814999998      -5.16839006E-15
  0.816250026      -3.90398756E-15
  0.817499995      -2.24407700E-15
  0.818750024      -3.22950819E-16
  0.819999993       1.69637226E-15
  0.821250021       3.63627560E-15
  0.822499990       5.32050532E-15
  0.823750019       6.59049485E-15
  0.824999988       7.32050596E-15
  0.826250017       7.43011033E-15
  0.827499986       6.89277211E-15
  0.828750014       5.73960536E-15
  0.829999983       4.05786549E-15
  0.831250012       1.98419945E-15
  0.832499981      -3.06803010E-16
  0.833750010      -2.61776295E-15
  0.834999979      -4.74600861E-15
  0.836250007      -6.50180923E-15
  0.837499976      -7.72566130E-15
  0.838750005      -8.30301167E-15
  0.839999974      -8.17502584E-15
  0.841250002      -7.34438806E-15
  0.842499971      -5.87557363E-15
  0.843750000      -3.88954099E-15
  0.845000029      -1.55332449E-15
  0.846249998       9.34527957E-16
  0.847500026       3.36134480E-15
  0.848749995       5.51896938E-15
  0.850000024       7.22196469E-15
  0.851249993       8.32375466E-15
  0.852500021       8.72927422E-15
  0.853749990       8.40304541E-15
  0.855000019       7.37200980E-15
  0.856249988       5.72292390E-15
  0.857500017       3.59463080E-15
  0.858749986       1.16594308E-15
  0.860000014      -1.35974898E-15
  0.861249983      -3.77176826E-15
  0.862500012      -5.86984303E-15
  0.863749981      -7.48069938E-15
  0.865000010      -8.47218956E-15
  0.866249979      -8.76384164E-15
  0.867500007      -8.33302882E-15
  0.868749976      -7.21636242E-15
  0.870000005      -5.50628082E-15