 -0.200000003       0.00000000    
 -0.198750004       0.00000000    
 -0.197500005       0.00000000    
 -0.196250007       0.00000000    
 -0.194999993       0.00000000    
 -0.193749994       0.00000000    
 -0.192499995       0.00000000    
 -0.191249996       0.00000000    
 -0.189999998       0.00000000    
 -0.188749999       0.00000000    
 -0.187500000       0.00000000    
 -0.186250001       0.00000000    
 -0.185000002       0.00000000    
 -0.183750004       0.00000000    
 -0.182500005       0.00000000    
 -0.181250006       0.00000000    
 -0.180000007       0.00000000    
 -0.178749993       0.00000000    
 -0.177499995       0.00000000    
 -0.176249996       0.00000000    
 -0.174999997       0.00000000    
 -0.173749998       0.00000000    
 -0.172499999       0.00000000    
 -0.171250001       0.00000000    
 -0.170000002       0.00000000    
 -0.168750003       0.00000000    
 -0.167500004       0.00000000    
 -0.166250005       0.00000000    
 -0.165000007       0.00000000    
 -0.163749993       0.00000000    
 -0.162499994       0.00000000    
 -0.161249995       0.00000000    
 -0.159999996       0.00000000    
 -0.158749998       0.00000000    
 -0.157499999       0.00000000    
 -0.156250000       0.00000000    
 -0.155000001       0.00000000    
 -0.153750002       0.00000000    
 -0.152500004       0.00000000    
 -0.151250005       0.00000000    
 -0.150000006       0.00000000    
 -0.148750007       1.40129846E-45
 -0.147499993       5.60519386E-45
 -0.146249995       1.26116862E-44
 -0.144999996       2.24207754E-44
 -0.143749997       2.94272678E-44
 -0.142499998       2.94272678E-44
 -0.141249999       4.20389539E-45
 -0.140000001      -7.84727140E-44
 -0.138750002      -2.62042813E-43
 -0.137500003      -5.98354444E-43
 -0.136250004      -1.11403228E-42
 -0.135000005      -1.74461659E-42
 -0.133750007      -2.21685417E-42
 -0.132499993      -1.89735812E-42
 -0.131249994       3.54528511E-43
 -0.129999995       6.22176518E-42
 -0.128749996       1.76283347E-41
 -0.127499998       3.58143862E-41
 -0.126249999       5.94528899E-41
 -0.125000000       8.16200304E-41
 -0.123750001       8.59178127E-41
 -0.122500002       4.29554031E-41
 -0.121250004      -9.01959770E-41
 -0.119999997      -3.63227772E-40
 -0.118749999      -8.12846996E-40
 -0.117500000      -1.42455301E-39
 -0.116250001      -2.07401842E-39
 -0.115000002      -2.45491376E-39
 -0.113750003      -2.01549038E-39
 -0.112499997       5.22502158E-41
 -0.111249998       4.70396557E-39
 -0.109999999       1.27335725E-38
 -0.108750001       2.41921708E-38
 -0.107500002       3.75210668E-38
 -0.106250003       4.85077624E-38
 -0.104999997       4.93717806E-38
 -0.103749998       2.85419694E-38
 -0.102499999      -2.80648553E-38
 -0.101250000      -1.33331318E-37
 -0.100000001      -2.92039030E-37
  -9.87500027E-02  -4.90707862E-37
  -9.74999964E-02  -6.85450592E-37
  -9.62499976E-02  -7.91153203E-37
  -9.49999988E-02  -6.77754302E-37
  -9.37500000E-02  -1.81625399E-37
  -9.25000012E-02   8.59082323E-37
  -9.12500024E-02   2.53827877E-36
  -9.00000036E-02   4.78461105E-36
  -8.87499973E-02   7.24468347E-36
  -8.74999985E-02   9.17588924E-36
  -8.62499997E-02   9.39803213E-36
  -8.50000009E-02   6.37012327E-36
  -8.37500021E-02  -1.53577146E-36
  -8.25000033E-02  -1.55091370E-35
  -8.12499970E-02  -3.55205321E-35
  -7.99999982E-02  -5.93731865E-35
  -7.87499994E-02  -8.18002412E-35
  -7.75000006E-02  -9.39631180E-35
  -7.62500018E-02  -8.38239454E-35
  -7.50000030E-02  -3.78988189E-35
  -7.37499967E-02   5.52215391E-35
  -7.24999979E-02   1.99535184E-34
  -7.12499991E-02   3.85014509E-34
  -7.00000003E-02   5.81051954E-34
  -6.87500015E-02   7.32186227E-34
  -6.75000027E-02   7.59049534E-34
  -6.62499964E-02   5.67687823E-34
  -6.49999976E-02   6.97168939E-35
  -6.37499988E-02  -7.86154091E-34
  -6.25000000E-02  -1.97401409E-33
  -6.12500012E-02  -3.34930740E-33
  -5.99999987E-02  -4.61819955E-33
  -5.87499999E-02  -5.33389157E-33
  -5.75000010E-02  -4.93735692E-33
  -5.62499985E-02  -2.85662594E-33
  -5.49999997E-02   1.33087028E-33
  -5.37500009E-02   7.68496256E-33
  -5.24999984E-02   1.56727251E-32
  -5.12499996E-02   2.39804932E-32
  -5.00000007E-02   3.04468788E-32
  -4.87499982E-02   3.22035993E-32
  -4.74999994E-02   2.60972618E-32
  -4.62500006E-02   9.42282590E-33
  -4.50000018E-02  -1.90743604E-32
  -4.37499993E-02  -5.80709432E-32
  -4.25000004E-02  -1.02665373E-31
  -4.12500016E-02  -1.43851921E-31
  -3.99999991E-02  -1.68857753E-31
  -3.87500003E-02  -1.62684821E-31
  -3.75000015E-02  -1.11031824E-31
  -3.62499990E-02  -4.47469116E-33
  -3.50000001E-02   1.56621457E-31
  -3.37500013E-02   3.57438962E-31
  -3.24999988E-02   5.65668852E-31
  -3.12500000E-02   7.31675785E-31
  -2.99999993E-02   7.93311609E-31
  -2.87500005E-02   6.86236064E-31
  -2.74999999E-02   3.59517495E-31
  -2.62499992E-02  -2.05217004E-31
  -2.50000004E-02  -9.74522151E-31
  -2.37499997E-02  -1.84873927E-30
  -2.25000009E-02  -2.65832198E-30
  -2.12500002E-02  -3.17644228E-30
  -1.99999996E-02  -3.15156393E-30
  -1.87500007E-02  -2.36003512E-30
  -1.75000001E-02  -6.73595879E-31
  -1.62499994E-02   1.86924215E-30
  -1.49999997E-02   5.00449887E-30
  -1.37499999E-02   8.21671003E-30
  -1.25000002E-02   1.07652773E-29
  -1.12500004E-02   1.17773746E-29
  -9.99999978E-03   1.04103044E-29
  -8.75000004E-03   6.06981272E-30
  -7.49999983E-03  -1.34848894E-30
  -6.25000009E-03  -1.12458472E-29
  -4.99999989E-03  -2.21989577E-29
  -3.74999992E-03  -3.19952846E-29
  -2.49999994E-03  -3.78752510E-29
  -1.24999997E-03  -3.69987242E-29
   0.00000000      -2.71040304E-29
   1.24999997E-03  -7.26851077E-30
   2.49999994E-03   2.13786319E-29
   3.74999992E-03   5.51828462E-29
   4.99999989E-03   8.79321594E-29
   6.25000009E-03   1.11432983E-28
   7.49999983E-03   1.16771540E-28
   8.75000004E-03   9.61993822E-29
   9.99999978E-03   4.54087818E-29
   1.12500004E-02  -3.42123700E-29
   1.25000002E-02  -1.33894393E-28
   1.37499999E-02  -2.36970104E-28
   1.49999997E-02  -3.20058622E-28
   1.62499994E-02  -3.56254838E-28
   1.75000001E-02  -3.20258966E-28
   1.87500007E-02  -1.94901005E-28
   1.99999996E-02   2.19964883E-29
   2.12500002E-02   3.11906304E-28
   2.25000009E-02   6.32751572E-28
   2.37499997E-02   9.20545980E-28
   2.50000004E-02   1.09663520E-27
   2.62499992E-02   1.08073328E-27
   2.74999999E-02   8.08688161E-28
   2.87500005E-02   2.52493027E-28
   2.99999993E-02  -5.61239001E-28
   3.12500000E-02  -1.53897557E-27
   3.24999988E-02  -2.51885868E-27
   3.37500013E-02  -3.28396593E-27
   3.50000001E-02  -3.59194293E-27
   3.62499990E-02  -3.21964141E-27
   3.75000015E-02  -2.01770609E-27
   3.87500003E-02   3.36317322E-29
   3.99999991E-02   2.77917604E-27
   4.12500016E-02   5.86664531E-27
   4.25000004E-02   8.75947220E-27
   4.37499993E-02   1.07921950E-26
   4.50000018E-02   1.12693549E-26
   4.62500006E-02   9.59996806E-27
   4.74999994E-02   5.45001196E-27
   4.87499982E-02  -1.11332781E-27
   5.00000007E-02  -9.51744581E-27
   5.12499996E-02  -1.86525375E-26
   5.24999984E-02  -2.69387155E-26
   5.37500009E-02  -3.25056145E-26
   5.49999997E-02  -3.34791089E-26
   5.62499985E-02  -2.83469000E-26
   5.75000010E-02  -1.63516814E-26
   5.87499999E-02   2.15809579E-27
   5.99999987E-02   2.54994003E-26
   6.12500012E-02   5.06234569E-26
   6.25000000E-02   7.33383769E-26
   6.37499988E-02   8.88063677E-26
   6.49999976E-02   9.22882580E-26
   6.62499964E-02   8.00539806E-26
   6.75000027E-02   5.03262689E-26
   6.87500015E-02   4.08700900E-27
   7.00000003E-02  -5.44382125E-26
   7.12499991E-02  -1.17783749E-25
   7.24999979E-02  -1.75848078E-25
   7.37499967E-02  -2.17123413E-25
   7.50000030E-02  -2.30463643E-25
   7.62500018E-02  -2.07183223E-25
   7.75000006E-02  -1.43171697E-25
   7.87499994E-02  -4.06364316E-26
   7.99999982E-02   9.09286932E-26
   8.12499970E-02   2.34893935E-25
   8.25000033E-02   3.68974404E-25
   8.37500021E-02   4.68049270E-25
   8.50000009E-02   5.08080854E-25
   8.62499997E-02   4.70640776E-25
   8.74999985E-02   3.47334051E-25
   8.87499973E-02   1.43284652E-25
   9.00000036E-02  -1.21152715E-25
   9.12500024E-02  -4.11130391E-25
   9.25000012E-02  -6.80852437E-25
   9.37500000E-02  -8.79831359E-25
   9.49999988E-02  -9.61233127E-25
   9.62499976E-02  -8.91167290E-25
   9.74999964E-02  -6.57365927E-25
   9.87500027E-02  -2.75490418E-25
  0.100000001       2.08605614E-25
  0.101250000       7.21907618E-25
  0.102499999       1.17306338E-24
  0.103749998       1.46649203E-24
  0.104999997       1.52015084E-24
  0.106250003       1.28428173E-24
  0.107500002       7.57697793E-25
  0.108750001      -2.09554467E-27
  0.109999999      -8.78260638E-25
  0.111249998      -1.70567249E-24
  0.112499997      -2.29406687E-24
  0.113750003      -2.46144975E-24
  0.115000002      -2.07350906E-24
  0.116250001      -1.08263882E-24
  0.117500000       4.41218976E-25
  0.118749999       2.29591419E-24
  0.119999997       4.15534691E-24
  0.121250004       5.60453133E-24
  0.122500002       6.20110502E-24
  0.123750001       5.55776134E-24
  0.125000000       3.43477335E-24
  0.126249999      -1.72720380E-25
  0.127499998      -4.97067094E-24
  0.128749996      -1.03432160E-23
  0.129999995      -1.53853988E-23
  0.131249994      -1.89990459E-23
  0.132499993      -2.00494695E-23
  0.133750007      -1.75688743E-23
  0.135000005      -1.09804839E-23
  0.136250004      -3.07572578E-25
  0.137500003       1.36740992E-23
  0.138750002       2.93813832E-23
  0.140000001       4.44993628E-23
  0.141249999       5.62049448E-23
  0.142499998       6.15337318E-23
  0.143749997       5.78594701E-23
  0.144999996       4.34288660E-23
  0.146249995       1.78724863E-23
  0.147499993      -1.74009763E-23
  0.148750007      -5.90198845E-23
  0.150000006      -1.01751640E-22
  0.151250005      -1.38937010E-22
  0.152500004      -1.63256266E-22
  0.153750002      -1.67771542E-22
  0.155000001      -1.47132353E-22
  0.156250000      -9.87819388E-23
  0.157499999      -2.39689817E-23
  0.158749998       7.16378598E-23
  0.159999996       1.77910727E-22
  0.161249995       2.80919048E-22
  0.162499994       3.64314040E-22
  0.163749993       4.11364078E-22
  0.165000007       4.07446809E-22
  0.166250005       3.42695894E-22
  0.167500004       2.14421507E-22
  0.168750003       2.88904719E-23
  0.170000002      -1.97923106E-22
  0.171250001      -4.40914681E-22
  0.172499999      -6.67900887E-22
  0.173749998      -8.43092631E-22
  0.174999997      -9.31712735E-22
  0.176249996      -9.05262545E-22
  0.177499995      -7.46762289E-22
  0.178749993      -4.55186071E-22
  0.180000007      -4.83073964E-23
  0.181250006       4.36717436E-22
  0.182500005       9.45470772E-22
  0.183750004       1.41121405E-21
  0.185000002       1.76236706E-21
  0.186250001       1.93183468E-21
  0.187500000       1.86712052E-21
  0.188749999       1.53990122E-21
  0.189999998       9.53621914E-22
  0.191249996       1.47753622E-22
  0.192499995      -8.02358429E-22
  0.193749994      -1.79065094E-21
  0.194999993      -2.69047078E-21
  0.196250007      -3.36893962E-21
  0.197500005      -3.70413094E-21
  0.198750004      -3.60305981E-21
  0.200000003      -3.01811629E-21
  0.201250002      -1.95949151E-21
  0.202500001      -5.01397215E-22
  0.203749999       1.21954241E-21
  0.204999998       3.01446547E-21
  0.206249997       4.66068131E-21
  0.207499996       5.92681896E-21
  0.208749995       6.60214125E-21
  0.209999993       6.52659438E-21
  0.211250007       5.61768646E-21
  0.212500006       3.89027121E-21
  0.213750005       1.46584402E-21
  0.215000004      -1.43102095E-21
  0.216250002      -4.49001755E-21
  0.217500001      -7.34543089E-21
  0.218750000      -9.61685431E-21
  0.219999999      -1.09560840E-20
  0.221249998      -1.10947595E-20
  0.222499996      -9.88667755E-21
  0.223749995      -7.33880536E-21
  0.224999994      -3.62591552E-21
  0.226249993       9.14611140E-22
  0.227500007       5.80904993E-21
  0.228750005       1.04933014E-20
  0.230000004       1.43745702E-20
  0.231250003       1.69023938E-20
  0.232500002       1.76409029E-20
  0.233750001       1.63333355E-20
  0.234999999       1.29499818E-20
  0.236249998       7.71213039E-21
  0.237499997       1.08689412E-21
  0.238749996      -6.24891211E-21
  0.239999995      -1.34739854E-20
  0.241249993      -1.97111599E-20
  0.242500007      -2.41303561E-20
  0.243750006      -2.60542247E-20
  0.245000005      -2.50535834E-20
  0.246250004      -2.10198807E-20
  0.247500002      -1.42038673E-20
  0.248750001      -5.21285385E-21
  0.250000000       5.03637761E-21
  0.251249999       1.54067349E-20
  0.252499998       2.46642511E-20
  0.253749996       3.16230793E-20
  0.254999995       3.52955770E-20
  0.256249994       3.50289728E-20
  0.257499993       3.06103485E-20
  0.258749992       2.23240732E-20
  0.259999990       1.09506515E-20
  0.261249989      -2.29758947E-21
  0.262499988      -1.59007265E-20
  0.263749987      -2.82041899E-20
  0.264999986      -3.76219126E-20
  0.266250014      -4.28456002E-20
  0.267500013      -4.30330794E-20
  0.268750012      -3.79491046E-20
  0.270000011      -2.80357876E-20
  0.271250010      -1.43972272E-20
  0.272500008       1.30694486E-21
  0.273750007       1.70525157E-20
  0.275000006       3.07072966E-20
  0.276250005       4.03236008E-20
  0.277500004       4.44287690E-20
  0.278750002       4.22723026E-20
  0.280000001       3.39899370E-20
  0.281250000       2.06525189E-20
  0.282499999       4.18056799E-21
  0.283749998      -1.28772230E-20
  0.284999996      -2.76837544E-20
  0.286249995      -3.75341539E-20
  0.287499994      -4.03034028E-20
  0.288749993      -3.48562666E-20
  0.289999992      -2.13521456E-20
  0.291249990      -1.38438369E-21
  0.292499989       2.20896838E-20
  0.293749988       4.50461139E-20
  0.294999987       6.29054183E-20
  0.296249986       7.12092583E-20
  0.297500014       6.63825948E-20
  0.298750013       4.64761411E-20
  0.300000012       1.17713496E-20
  0.301250011      -3.48673010E-20
  0.302500010      -8.79873245E-20
  0.303750008      -1.39947767E-19
  0.305000007      -1.81728479E-19
  0.306250006      -2.04094021E-19
  0.307500005      -1.98995163E-19
  0.308750004      -1.61037098E-19
  0.310000002      -8.88060589E-20
  0.311250001       1.41664567E-20
  0.312500000       1.39005078E-19
  0.313749999       2.71810826E-19
  0.314999998       3.94773576E-19
  0.316249996       4.88047677E-19
  0.317499995       5.32246677E-19
  0.318749994       5.11302774E-19
  0.319999993       4.15343024E-19
  0.321249992       2.43179339E-19
  0.322499990       3.99839398E-21
  0.323749989      -2.82112145E-19
  0.324999988      -5.85060556E-19
  0.326249987      -8.67171745E-19
  0.327499986      -1.08703754E-18
  0.328750014      -1.20449326E-18
  0.330000013      -1.18621588E-18
  0.331250012      -1.01128258E-18
  0.332500011      -6.75936221E-19
  0.333750010      -1.96799968E-19
  0.335000008       3.88114565E-19
  0.336250007       1.02106348E-18
  0.337500006       1.62905767E-18
  0.338750005       2.13099696E-18
  0.340000004       2.44689641E-18
  0.341250002       2.50829389E-18
  0.342500001       2.26866112E-18
  0.343750000       1.71247025E-18
  0.344999999       8.61574007E-19
  0.346249998      -2.22277803E-19
  0.347499996      -1.43961862E-18
  0.348749995      -2.66048230E-18
  0.349999994      -3.73639840E-18
  0.351249993      -4.51627255E-18
  0.352499992      -4.86465415E-18
  0.353749990      -4.68041207E-18
  0.354999989      -3.91355278E-18
  0.356249988      -2.57786826E-18
  0.357499987      -7.57349146E-19
  0.358749986       1.39516625E-18
  0.360000014       3.66786442E-18
  0.361250013       5.80814049E-18
  0.362500012       7.54784773E-18
  0.363750011       8.63336098E-18
  0.365000010       8.85737555E-18
  0.366250008       8.08881392E-18
  0.367500007       6.29704890E-18
  0.368750006       3.56694135E-18
  0.370000005       1.01916755E-19
  0.371250004      -3.78655574E-18
  0.372500002      -7.70325925E-18
  0.373750001      -1.12058745E-17
  0.375000000      -1.38509309E-17
  0.376249999      -1.52446426E-17
  0.377499998      -1.50931858E-17
  0.378749996      -1.32465448E-17
  0.379999995      -9.73020992E-18
  0.381249994      -4.75992481E-18
  0.382499993       1.26381772E-18
  0.383749992       7.78278687E-18
  0.384999990       1.41284268E-17
  0.386249989       1.95861265E-17
  0.387499988       2.34705617E-17
  0.388749987       2.52045655E-17
  0.389999986       2.43929342E-17
  0.391250014       2.08824608E-17
  0.392500013       1.48002828E-17
  0.393750012       6.56447308E-18
  0.395000011      -3.13659258E-18
  0.396250010      -1.33963141E-17
  0.397500008      -2.31701280E-17
  0.398750007      -3.13772999E-17
  0.400000006      -3.70147012E-17
  0.401250005      -3.92710117E-17
  0.402500004      -3.76288464E-17
  0.403750002      -3.19428135E-17
  0.405000001      -2.24832587E-17
  0.406250000      -9.93851385E-18
  0.407499999       4.62746135E-18
  0.408749998       1.98605403E-17
  0.409999996       3.42386864E-17
  0.411249995       4.62202950E-17
  0.412499994       5.44044167E-17
  0.413749993       5.76865502E-17
  0.414999992       5.53930398E-17
  0.416249990       4.73786423E-17
  0.417499989       3.40745969E-17
  0.418749988       1.64793420E-17
  0.419999987      -3.91045126E-18
  0.421249986      -2.52245436E-17
  0.422500014      -4.53894251E-17
  0.423750013      -6.23288202E-17
  0.425000012      -7.41750061E-17
  0.426250011      -7.94694120E-17
  0.427500010      -7.73312361E-17
  0.428750008      -6.75749386E-17
  0.430000007      -5.07622776E-17
  0.431250006      -2.81805248E-17
  0.432500005      -1.74608149E-18
  0.433750004       2.61596878E-17
  0.435000002       5.29081694E-17
  0.436250001       7.58745049E-17
  0.437500000       9.26973998E-17
  0.438749999       1.01521597E-16
  0.439999998       1.01197720E-16
  0.441249996       9.14180161E-17
  0.442499995       7.27723261E-17
  0.443749994       4.67166067E-17
  0.444999993       1.54549582E-17
  0.446249992      -1.82548322E-17
  0.447499990      -5.13543139E-17
  0.448749989      -8.07716656E-17
  0.449999988      -1.03715095E-16
  0.451249987      -1.17943170E-16
  0.452499986      -1.21984987E-16
  0.453750014      -1.15287921E-16
  0.455000013      -9.82778580E-17
  0.456250012      -7.23258736E-17
  0.457500011      -3.96244858E-17
  0.458750010      -2.98600889E-18
  0.460000008       3.44168214E-17
  0.461250007       6.93420941E-17
  0.462500006       9.87731539E-17
  0.463750005       1.20187596E-16
  0.465000004       1.31775576E-16
  0.466250002       1.32587576E-16
  0.467500001       1.22599840E-16
  0.468750000       1.02693937E-16
  0.469999999       7.45560385E-17
  0.471249998       4.05088842E-17
  0.472499996       3.29580168E-18
  0.473749995      -3.41604913E-17
  0.474999994      -6.90003825E-17
  0.476249993      -9.86490437E-17
  0.477499992      -1.20999040E-16
  0.478749990      -1.34541377E-16
  0.479999989      -1.38438893E-16
  0.481249988      -1.32542644E-16
  0.482499987      -1.17357447E-16
  0.483749986      -9.39671220E-17
  0.485000014      -6.39321940E-17
  0.486250013      -2.91729860E-17
  0.487500012       8.15051250E-18
  0.488750011       4.57539736E-17
  0.490000010       8.13348697E-17
  0.491250008       1.12669067E-16
  0.492500007       1.37700518E-16
  0.493750006       1.54628498E-16
  0.495000005       1.61996494E-16
  0.496250004       1.58785246E-16
  0.497500002       1.44508572E-16
  0.498750001       1.19306271E-16
  0.500000000       8.40237295E-17
  0.501250029       4.02639262E-17
  0.502499998      -9.60446192E-18
  0.503750026      -6.24988289E-17
  0.504999995      -1.14746786E-16
  0.506250024      -1.62288773E-16
  0.507499993      -2.00956423E-16
  0.508750021      -2.26813242E-16
  0.509999990      -2.36533236E-16
  0.511250019      -2.27783624E-16
  0.512499988      -1.99570293E-16
  0.513750017      -1.52502459E-16
  0.514999986      -8.89344493E-17
  0.516250014      -1.29513042E-17
  0.517499983       6.98226398E-17
  0.518750012       1.52594918E-16
  0.519999981       2.27938763E-16
  0.521250010       2.88451512E-16
  0.522499979       3.27481122E-16
  0.523750007       3.39849841E-16
  0.524999976       3.22497286E-16
  0.526250005       2.74965397E-16
  0.527499974       1.99658742E-16
  0.528750002       1.01831274E-16
  0.529999971      -1.07225330E-17
  0.531250000      -1.28263804E-16
  0.532500029      -2.39951596E-16
  0.533749998      -3.34860103E-16
  0.535000026      -4.03074366E-16
  0.536249995      -4.36752899E-16
  0.537500024      -4.31040773E-16
  0.538749993      -3.84726203E-16
  0.540000021      -3.00554077E-16
  0.541249990      -1.85143165E-16
  0.542500019      -4.84937480E-17
  0.543749988       9.68833241E-17
  0.545000017       2.37141458E-16
  0.546249986       3.58465349E-16
  0.547500014       4.48491505E-16
  0.548749983       4.97631009E-16
  0.550000012       5.00148497E-16
  0.551249981       4.54869451E-16
  0.552500010       3.65426531E-16
  0.553749979       2.40001677E-16
  0.555000007       9.05756617E-17
  0.556249976      -6.82481709E-17
  0.557500005      -2.20729269E-16
  0.558749974      -3.51629476E-16
  0.560000002      -4.47830131E-16
  0.561249971      -4.99747321E-16
  0.562500000      -5.02383605E-16
  0.563750029      -4.55892138E-16
  0.564999998      -3.65580849E-16
  0.566250026      -2.41347056E-16
  0.567499995      -9.65972189E-17
  0.568750024       5.32323481E-17
  0.569999993       1.92390378E-16
  0.571250021       3.06566979E-16
  0.572499990       3.84488875E-16
  0.573750019       4.19166589E-16
  0.574999988       4.08644296E-16
  0.576250017       3.56159461E-16
  0.577499986       2.69688646E-16
  0.578750014       1.60928240E-16
  0.579999983       4.38284592E-17
  0.581250012      -6.71450892E-17
  0.582499981      -1.58811981E-16
  0.583750010      -2.20917681E-16
  0.584999979      -2.47408212E-16
  0.586250007      -2.37173672E-16
  0.587499976      -1.94158652E-16
  0.588750005      -1.26814570E-16
  0.589999974      -4.69514333E-17
  0.591250002       3.18757986E-17
  0.592499971       9.62481222E-17
  0.593750000       1.34792270E-16
  0.595000029       1.39869677E-16
  0.596249998       1.08814438E-16
  0.597500026       4.45400596E-17
  0.598749995      -4.45915764E-17
  0.600000024      -1.45654383E-16
  0.601249993      -2.42714697E-16
  0.602500021      -3.18889296E-16
  0.603749990      -3.58660987E-16
  0.605000019      -3.50163262E-16
  0.606249988      -2.87133819E-16
  0.607500017      -1.70264131E-16
  0.608749986      -7.73308738E-18
  0.610000014       1.85194992E-16
  0.611249983       3.87517150E-16
  0.612500012       5.74674691E-16
  0.613749981       7.21352793E-16
  0.615000010       8.04588126E-16
  0.616249979       8.06820693E-16
  0.617500007       7.18510626E-16
  0.618749976       5.39972545E-16
  0.620000005       2.82154430E-16
  0.621249974      -3.37997711E-17
  0.622500002      -3.78228163E-16
  0.623749971      -7.15747076E-16
  0.625000000      -1.00890285E-15
  0.626250029      -1.22230253E-15
  0.627499998      -1.32676753E-15
  0.628750026      -1.30303176E-15
  0.629999995      -1.14453051E-15
  0.631250024      -8.58910520E-16
  0.632499993      -4.68022073E-16
  0.633750021      -6.31695831E-18
  0.634999990       4.82245715E-16
  0.636250019       9.48506224E-16
  0.637499988       1.34319520E-15
  0.638750017       1.62227159E-15
  0.639999986       1.75192163E-15
  0.641250014       1.71264524E-15
  0.642499983       1.50193892E-15
  0.643750012       1.13522352E-15
  0.644999981       6.44847612E-16
  0.646250010       7.72093494E-17
  0.647499979      -5.11749672E-16
  0.648750007      -1.06223406E-15
  0.649999976      -1.51687814E-15
  0.651250005      -1.82694864E-15
  0.652499974      -1.95778219E-15
  0.653750002      -1.89283806E-15
  0.654999971      -1.63588648E-15
  0.656250000      -1.21104218E-15
  0.657500029      -6.60591572E-16
  0.658749998      -4.08001841E-17
  0.660000026       5.83884374E-16
  0.661249995       1.14763001E-15
  0.662500024       1.59029345E-15
  0.663749993       1.86399807E-15
  0.665000021       1.93848805E-15
  0.666249990       1.80464859E-15
  0.667500019       1.47578010E-15
  0.668749988       9.86448535E-16
  0.670000017       3.89004593E-16
  0.671249986      -2.51880652E-16
  0.672500014      -8.66092512E-16
  0.673749983      -1.38562774E-15
  0.675000012      -1.75201184E-15
  0.676249981      -1.92276733E-15
  0.677500010      -1.87621842E-15
  0.678749979      -1.61409593E-15
  0.680000007      -1.16163623E-15
  0.681249976      -5.65146153E-16
  0.682500005       1.12722628E-16
  0.683749974       7.99494758E-16
  0.685000002       1.42049670E-15
  0.686249971       1.90677344E-15
  0.687500000       2.20245274E-15
  0.688750029       2.27076891E-15
  0.689999998       2.09811035E-15
  0.691250026       1.69565959E-15
  0.692499995       1.09846271E-15
  0.693750024       3.62031861E-16
  0.694999993      -4.43151888E-16
  0.696250021      -1.23865048E-15
  0.697499990      -1.94585724E-15
  0.698750019      -2.49375902E-15
  0.699999988      -2.82588212E-15
  0.701250017      -2.90573424E-15
  0.702499986      -2.72022598E-15
  0.703750014      -2.28077724E-15
  0.704999983      -1.62206047E-15
  0.706250012      -7.98572075E-16
  0.707499981       1.20563162E-16
  0.708750010       1.05799391E-15
  0.709999979       1.93508954E-15
  0.711250007       2.67875737E-15
  0.712499976       3.22750893E-15
  0.713750005       3.53626642E-15
  0.714999974       3.57954895E-15
  0.716250002       3.35288061E-15
  0.717499971       2.87243568E-15
  0.718750000       2.17309797E-15
  0.720000029       1.30523404E-15
  0.721249998       3.30553628E-16
  0.722500026      -6.82491133E-16
  0.723749995      -1.66343983E-15
  0.725000024      -2.54430740E-15
  0.726249993      -3.26361329E-15
  0.727500021      -3.76978281E-15
  0.728749990      -4.02387279E-15
  0.730000019      -4.00159540E-15
  0.731249988      -3.69471452E-15
  0.732500017      -3.11181757E-15
  0.733749986      -2.27845595E-15
  0.735000014      -1.23666408E-15
  0.736249983      -4.37835963E-17
  0.737500012       1.22954985E-15
  0.738749981       2.50231469E-15
  0.740000010       3.68703532E-15
  0.741249979       4.69474152E-15
  0.742500007       5.44081153E-15
  0.743749976       5.85141837E-15
  0.745000005       5.87025003E-15
  0.746249974       5.46492402E-15
  0.747500002       4.63244436E-15
  0.748749971       3.40296079E-15
  0.750000000       1.84131008E-15
  0.751250029       4.55695255E-17
  0.752499998      -1.85747020E-15
  0.753750026      -3.71998363E-15
  0.754999995      -5.38380621E-15
  0.756250024      -6.69321920E-15
  0.757499993      -7.50906820E-15
  0.758750021      -7.72285508E-15
  0.759999990      -7.26940616E-15
  0.761250019      -6.13668933E-15
  0.762499988      -4.37154128E-15
  0.763750017      -2.08035463E-15
  0.764999986       5.75950640E-16
  0.766250014       3.39250057E-15
  0.767499983       6.13620017E-15
  0.768750012       8.56529034E-15
  0.769999981       1.04513710E-14
  0.771250010       1.16014418E-14
  0.772499979       1.18784097E-14
  0.773750007       1.12172522E-14
  0.774999976       9.63517342E-15
  0.776250005       7.23471677E-15
  0.777499974       4.19849795E-15
  0.778750002       7.76177635E-16
  0.779999971      -2.73583172E-15
  0.781250000      -6.02047006E-15
  0.782500029      -8.76875527E-15
  0.783749998      -1.07095644E-14
  0.785000026      -1.16365632E-14
  0.786249995      -1.14300930E-14
  0.787500024      -1.00717918E-14
  0.788749993      -7.64923013E-15
  0.790000021      -4.35100750E-15
  0.791249990      -4.51713459E-16
  0.792500019       3.71196053E-15
  0.793749988       7.77144259E-15
  0.795000017       1.13606761E-14
  0.796249986       1.41510262E-14
  0.797500014       1.58829638E-14
  0.798749983       1.63923982E-14
  0.800000012       1.56272107E-14
  0.801249981       1.36536443E-14
  0.802500010       1.06516146E-14
  0.803749979       6.89910199E-15
  0.805000007       2.74571659E-15
  0.806249976      -1.41940646E-15
  0.807500005      -5.20489168E-15
  0.808749974      -8.25387952E-15
  0.810000002      -1.02782891E-14
  0.811249971      -1.10862391E-14
  0.812500000      -1.06005809E-14
  0.813750029      -8.86529331E-15
  0.814999998      -6.04064934E-15
  0.816250026      -2.38805439E-15
  0.817499995       1.75685221E-15
  0.818750024       6.01592191E-15
  0.819999993       1.00039072E-14
  0.821250021       1.33673844E-14
  0.822499990       1.58159923E-14
  0.823750019       1.71482549E-14
  0.824999988       1.72689909E-14
  0.826250017       1.61974909E-14
  0.827499986       1.40627341E-14
  0.828750014       1.10894511E-14
  0.829999983       7.57402716E-15
  0.831250012       3.85575539E-15
  0.832499981       2.84869912E-16
  0.833750010      -2.81066157E-15
  0.834999979      -5.15295289E-15
  0.836250007      -6.53801650E-15
  0.837499976      -6.85183755E-15
  0.838750005      -6.07841516E-15
  0.839999974      -4.29591394E-15
  0.841250002      -1.66731088E-15
  0.842499971       1.57801688E-15
  0.843750000       5.16811562E-15
  0.845000029       8.81012606E-15
  0.846249998       1.22167892E-14
  0.847500026       1.51319251E-14
  0.848749995       1.73489525E-14
  0.850000024       1.87240241E-14
  0.851249993       1.91859163E-14
  0.852500021       1.87374699E-14
  0.853749990       1.74474980E-14
  0.855000019       1.54468011E-14
  0.856249988       1.29115053E-14
  0.857500017       1.00500713E-14
  0.858749986       7.08780484E-15
  0.860000014       4.24802990E-15
  0.861249983       1.73995941E-15
  0.862500012      -2.59188217E-16
  0.863749981      -1.60581163E-15
  0.865000010      -2.20165484E-15
  0.866249979      -2.00718645E-15
  0.867500007      -1.03758254E-15
  0.868749976       6.40674651E-16
  0.870000005       2.90164519E-15