 -0.200000003       0.00000000    
 -0.198750004       0.00000000    
 -0.197500005       0.00000000    
 -0.196250007       0.00000000    
 -0.194999993       0.00000000    
 -0.193749994       0.00000000    
 -0.192499995       0.00000000    
 -0.191249996       0.00000000    
 -0.189999998       0.00000000    
 -0.188749999       0.00000000    
 -0.187500000       0.00000000    
 -0.186250001       0.00000000    
 -0.185000002       0.00000000    
 -0.183750004       0.00000000    
 -0.182500005       0.00000000    
 -0.181250006       0.00000000    
 -0.180000007       0.00000000    
 -0.178749993       0.00000000    
 -0.177499995       0.00000000    
 -0.176249996       0.00000000    
 -0.174999997       0.00000000    
 -0.173749998       0.00000000    
 -0.172499999       0.00000000    
 -0.171250001       0.00000000    
 -0.170000002       0.00000000    
 -0.168750003       0.00000000    
 -0.167500004       0.00000000    
 -0.166250005       0.00000000    
 -0.165000007       0.00000000    
 -0.163749993       0.00000000    
 -0.162499994       0.00000000    
 -0.161249995       0.00000000    
 -0.159999996       0.00000000    
 -0.158749998       0.00000000    
 -0.157499999       0.00000000    
 -0.156250000       0.00000000    
 -0.155000001       0.00000000    
 -0.153750002       0.00000000    
 -0.152500004       0.00000000    
 -0.151250005       0.00000000    
 -0.150000006       0.00000000    
 -0.148750007       0.00000000    
 -0.147499993       0.00000000    
 -0.146249995       0.00000000    
 -0.144999996       0.00000000    
 -0.143749997       0.00000000    
 -0.142499998       0.00000000    
 -0.141249999       0.00000000    
 -0.140000001       0.00000000    
 -0.138750002       0.00000000    
 -0.137500003       0.00000000    
 -0.136250004       0.00000000    
 -0.135000005       0.00000000    
 -0.133750007       0.00000000    
 -0.132499993       0.00000000    
 -0.131249994       0.00000000    
 -0.129999995       0.00000000    
 -0.128749996       0.00000000    
 -0.127499998       0.00000000    
 -0.126249999       0.00000000    
 -0.125000000       0.00000000    
 -0.123750001       0.00000000    
 -0.122500002       0.00000000    
 -0.121250004       0.00000000    
 -0.119999997       0.00000000    
 -0.118749999       0.00000000    
 -0.117500000       0.00000000    
 -0.116250001       0.00000000    
 -0.115000002       0.00000000    
 -0.113750003      -5.60519386E-42
 -0.112499997      -5.60519386E-42
 -0.111249998       0.00000000    
 -0.109999999       1.68155816E-41
 -0.108750001       2.80259693E-41
 -0.107500002       5.04467447E-41
 -0.106250003       3.81444652E-40
 -0.104999997       4.15075816E-40
 -0.103749998       3.65636604E-40
 -0.102499999      -1.09189176E-41
 -0.101250000      -8.49405472E-40
 -0.100000001      -1.23070439E-39
  -9.87500027E-02  -2.74771087E-39
  -9.74999964E-02  -4.91953291E-39
  -9.62499976E-02  -5.29423172E-39
  -9.49999988E-02  -5.42762972E-39
  -9.37500000E-02  -2.48764809E-39
  -9.25000012E-02   5.91858025E-39
  -9.12500024E-02   2.04246005E-38
  -9.00000036E-02   4.34020418E-38
  -8.87499973E-02   7.18744087E-38
  -8.74999985E-02   1.01424402E-37
  -8.62499997E-02   1.18756345E-37
  -8.50000009E-02   1.02169063E-37
  -8.37500021E-02   2.48146837E-38
  -8.25000033E-02  -1.47334751E-37
  -8.12499970E-02  -4.42790943E-37
  -7.99999982E-02  -8.63821896E-37
  -7.87499994E-02  -1.36879991E-36
  -7.75000006E-02  -1.83962086E-36
  -7.62500018E-02  -2.05289714E-36
  -7.50000030E-02  -1.67583028E-36
  -7.37499967E-02  -2.87493868E-37
  -7.24999979E-02   2.53760184E-36
  -7.12499991E-02   7.08016520E-36
  -7.00000003E-02   1.32368656E-35
  -6.87500015E-02   2.02155526E-35
  -6.75000027E-02   2.62372951E-35
  -6.62499964E-02   2.83238808E-35
  -6.49999976E-02   2.23408240E-35
  -6.37499988E-02   3.48387820E-36
  -6.25000000E-02  -3.26082449E-35
  -6.12500012E-02  -8.80177913E-35
  -5.99999987E-02  -1.60026429E-34
  -5.87499999E-02  -2.38256266E-34
  -5.75000010E-02  -3.02162177E-34
  -5.62499985E-02  -3.19940382E-34
  -5.49999997E-02  -2.50294201E-34
  -5.37500009E-02  -4.85025557E-35
  -5.24999984E-02   3.22045641E-34
  -5.12499996E-02   8.72591956E-34
  -5.00000007E-02   1.56747984E-33
  -4.87499982E-02   2.30197463E-33
  -4.74999994E-02   2.88578335E-33
  -4.62500006E-02   3.04100297E-33
  -4.50000018E-02   2.42461010E-33
  -4.37499993E-02   6.84820188E-34
  -4.25000004E-02  -2.44339395E-33
  -4.12500016E-02  -7.00632469E-33
  -3.99999991E-02  -1.26779828E-32
  -3.87500003E-02  -1.86148890E-32
  -3.75000015E-02  -2.33648354E-32
  -3.62499990E-02  -2.48870639E-32
  -3.50000001E-02  -2.07445086E-32
  -3.37500013E-02  -8.51678130E-33
  -3.24999988E-02   1.35489977E-32
  -3.12500000E-02   4.56857525E-32
  -2.99999993E-02   8.56617352E-32
  -2.87500005E-02   1.27936491E-31
  -2.74999999E-02   1.63189096E-31
  -2.62499992E-02   1.78539431E-31
  -2.50000004E-02   1.58779347E-31
  -2.37499997E-02   8.88430696E-32
  -2.25000009E-02  -4.24363599E-32
  -2.12500002E-02  -2.37534001E-31
  -1.99999996E-02  -4.85015881E-31
  -1.87500007E-02  -7.54923020E-31
  -1.75000001E-02  -9.96143441E-31
  -1.62499994E-02  -1.13736592E-30
  -1.49999997E-02  -1.09316489E-30
  -1.37499999E-02  -7.76335073E-31
  -1.25000002E-02  -1.16727435E-31
  -1.12500004E-02   9.14494544E-31
  -9.99999978E-03   2.27794461E-30
  -8.75000004E-03   3.84108070E-30
  -7.49999983E-03   5.36159562E-30
  -6.25000009E-03   6.48664189E-30
  -4.99999989E-03   6.77543057E-30
  -3.74999992E-03   5.75138541E-30
  -2.49999994E-03   2.98658903E-30
  -1.24999997E-03  -1.78415310E-30
   0.00000000      -8.52964204E-30
   1.24999997E-03  -1.67878047E-29
   2.49999994E-03  -2.55578698E-29
   3.74999992E-03  -3.32539701E-29
   4.99999989E-03  -3.77587924E-29
   6.25000009E-03  -3.66124278E-29
   7.49999983E-03  -2.73613407E-29
   8.75000004E-03  -8.06977737E-30
   9.99999978E-03   2.20359683E-29
   1.12500004E-02   6.18623323E-29
   1.25000002E-02   1.07800498E-28
   1.37499999E-02   1.53298306E-28
   1.49999997E-02   1.88845376E-28
   1.62499994E-02   2.02568734E-28
   1.75000001E-02   1.81598595E-28
   1.87500007E-02   1.14276558E-28
   1.99999996E-02  -6.87046844E-30
   2.12500002E-02  -1.81667338E-28
   2.25000009E-02  -3.98849090E-28
   2.37499997E-02  -6.33385155E-28
   2.50000004E-02  -8.45486423E-28
   2.62499992E-02  -9.82271650E-28
   2.74999999E-02  -9.82925888E-28
   2.87500005E-02  -7.87808914E-28
   2.99999993E-02  -3.51311698E-28
   3.12500000E-02   3.42646289E-28
   3.24999988E-02   1.26463455E-27
   3.37500013E-02   2.32643805E-27
   3.50000001E-02   3.37447000E-27
   3.62499990E-02   4.19405604E-27
   3.75000015E-02   4.52822723E-27
   3.87500003E-02   4.11297054E-27
   3.99999991E-02   2.72820264E-27
   4.12500016E-02   2.60028685E-28
   4.25000004E-02  -3.23427617E-27
   4.37499993E-02  -7.47111135E-27
   4.50000018E-02  -1.19104939E-26
   4.62500006E-02  -1.57668689E-26
   4.74999994E-02  -1.80739527E-26
   4.87499982E-02  -1.78101743E-26
   5.00000007E-02  -1.40810809E-26
   5.12499996E-02  -6.34184233E-27
   5.24999984E-02   5.37129035E-27
   5.37500009E-02   2.02445374E-26
   5.49999997E-02   3.65768979E-26
   5.62499985E-02   5.18086372E-26
   5.75000010E-02   6.27283210E-26
   5.87499999E-02   6.58753028E-26
   5.99999987E-02   5.81203872E-26
   6.12500012E-02   3.73661532E-26
   6.25000000E-02   3.26550358E-27
   6.37499988E-02  -4.21770677E-26
   6.49999976E-02  -9.42736422E-26
   6.62499964E-02  -1.45734410E-25
   6.75000027E-02  -1.87263906E-25
   6.87500015E-02  -2.08701707E-25
   7.00000003E-02  -2.00635431E-25
   7.12499991E-02  -1.56304444E-25
   7.24999979E-02  -7.35054860E-26
   7.37499967E-02   4.38591841E-26
   7.50000030E-02   1.84972253E-25
   7.62500018E-02   3.32355654E-25
   7.75000006E-02   4.63384784E-25
   7.87499994E-02   5.53054357E-25
   7.99999982E-02   5.77743386E-25
   8.12499970E-02   5.19480634E-25
   8.25000033E-02   3.70011362E-25
   8.37500021E-02   1.33876327E-25
   8.50000009E-02  -1.70238229E-25
   8.62499997E-02  -5.10397739E-25
   8.74999985E-02  -8.44716990E-25
   8.87499973E-02  -1.12673920E-24
   9.00000036E-02  -1.31209913E-24
   9.12500024E-02  -1.36528689E-24
   9.25000012E-02  -1.26515096E-24
   9.37500000E-02  -1.00790993E-24
   9.49999988E-02  -6.06884894E-25
   9.62499976E-02  -8.89112184E-26
   9.74999964E-02   5.11695859E-25
   9.87500027E-02   1.15989434E-24
  0.100000001       1.82505436E-24
  0.101250000       2.48212007E-24
  0.102499999       3.10706101E-24
  0.103749998       3.66629929E-24
  0.104999997       4.10179706E-24
  0.106250003       4.31577400E-24
  0.107500002       4.16092455E-24
  0.108750001       3.44316999E-24
  0.109999999       1.94334109E-24
  0.111249998      -5.38233583E-25
  0.112499997      -4.11492567E-24
  0.113750003      -8.73173807E-24
  0.115000002      -1.40821296E-23
  0.116250001      -1.95440431E-23
  0.117500000      -2.41596525E-23
  0.118749999      -2.66826395E-23
  0.119999997      -2.57109333E-23
  0.121250004      -1.99103460E-23
  0.122500002      -8.31638308E-24
  0.123750001       9.32025197E-24
  0.125000000       3.22006237E-23
  0.126249999       5.82305755E-23
  0.127499998       8.39406316E-23
  0.128749996       1.04647322E-22
  0.129999995       1.14905517E-22
  0.131249994       1.09260492E-22
  0.132499993       8.32511671E-23
  0.133750007       3.45529091E-23
  0.135000005      -3.59129432E-23
  0.136250004      -1.23120424E-22
  0.137500003      -2.17565010E-22
  0.138750002      -3.05584267E-22
  0.140000001      -3.70513881E-22
  0.141249999      -3.94703891E-22
  0.142499998      -3.62272241E-22
  0.143749997      -2.62306449E-22
  0.144999996      -9.20688272E-23
  0.146249995       1.40350283E-22
  0.147499993       4.14530780E-22
  0.148750007       6.97914154E-22
  0.150000006       9.48067728E-22
  0.151250005       1.11713630E-21
  0.152500004       1.15824239E-21
  0.153750002       1.03322765E-21
  0.155000001       7.20753204E-22
  0.156250000       2.23523624E-22
  0.157499999      -4.26726898E-22
  0.158749998      -1.16775062E-21
  0.159999996      -1.90975970E-21
  0.161249995      -2.54327585E-21
  0.162499994      -2.95157995E-21
  0.163749993      -3.02670293E-21
  0.165000007      -2.68716710E-21
  0.166250005      -1.89508573E-21
  0.167500004      -6.69943039E-22
  0.168750003       9.03563351E-22
  0.170000002       2.67575338E-21
  0.171250001       4.44151278E-21
  0.172499999       5.95923047E-21
  0.173749998       6.97782827E-21
  0.174999997       7.26924545E-21
  0.176249996       6.66265145E-21
  0.177499995       5.07595950E-21
  0.178749993       2.54009374E-21
  0.180000007      -7.88053061E-22
  0.181250006      -4.62691473E-21
  0.182500005      -8.58718651E-21
  0.183750004      -1.22039255E-20
  0.185000002      -1.49814219E-20
  0.186250001      -1.64468531E-20
  0.187500000      -1.62074118E-20
  0.188749999      -1.40050870E-20
  0.189999998      -9.76319742E-21
  0.191249996      -3.61951618E-21
  0.192499995       4.05821029E-21
  0.193749994       1.26770898E-20
  0.194999993       2.14456687E-20
  0.196250007       2.94222554E-20
  0.197500005       3.55838171E-20
  0.198750004       3.89130737E-20
  0.200000003       3.85002783E-20
  0.201250002       3.36546866E-20
  0.202500001       2.40187611E-20
  0.203749999       9.67607204E-21
  0.204999998      -8.75913829E-21
  0.206249997      -3.00849175E-20
  0.207499996      -5.25032505E-20
  0.208749995      -7.36763568E-20
  0.209999993      -9.08616156E-20
  0.211250007      -1.01132478E-19
  0.212500006      -1.01684221E-19
  0.213750005      -9.02096616E-20
  0.215000004      -6.53154607E-20
  0.216250002      -2.69334563E-20
  0.217500001       2.33322642E-20
  0.218750000       8.19891342E-20
  0.219999999       1.43638957E-19
  0.221249998       2.01216233E-19
  0.222499996       2.46516470E-19
  0.223749995       2.71013553E-19
  0.224999994       2.66923868E-19
  0.226249993       2.28424091E-19
  0.227500007       1.52886616E-19
  0.228750005       4.19594765E-20
  0.230000004      -9.77002926E-20
  0.231250003      -2.54221812E-19
  0.232500002      -4.10991589E-19
  0.233750001      -5.47879460E-19
  0.234999999      -6.43206597E-19
  0.236249998      -6.76332802E-19
  0.237499997      -6.30624249E-19
  0.238749996      -4.96464446E-19
  0.239999995      -2.73897802E-19
  0.241249993       2.55301557E-20
  0.242500007       3.78139956E-19
  0.243750006       7.48995863E-19
  0.245000005       1.09444649E-18
  0.246250004       1.36627355E-18
  0.247500002       1.51715874E-18
  0.248750001       1.50696281E-18
  0.250000000       1.30910431E-18
  0.251249999       9.16215025E-19
  0.252499998       3.44209343E-19
  0.253749996      -3.66005449E-19
  0.254999995      -1.14975231E-18
  0.256249994      -1.92301522E-18
  0.257499993      -2.58996764E-18
  0.258749992      -3.05307318E-18
  0.259999990      -3.22483993E-18
  0.261249989      -3.03997581E-18
  0.262499988      -2.46648550E-18
  0.263749987      -1.51420850E-18
  0.264999986      -2.39433063E-19
  0.266250014       1.25545968E-18
  0.267500013       2.82787636E-18
  0.268750012       4.30637961E-18
  0.270000011       5.50684781E-18
  0.271250010       6.25209163E-18
  0.272500008       6.39307175E-18
  0.273750007       5.82945280E-18
  0.275000006       4.52713799E-18
  0.276250005       2.53045861E-18
  0.277500004      -3.28814762E-20
  0.278750002      -2.95545202E-18
  0.280000001      -5.96286504E-18
  0.281250000      -8.73530520E-18
  0.282499999      -1.09364899E-17
  0.283749998      -1.22478524E-17
  0.284999996      -1.24049919E-17
  0.286249995      -1.12328282E-17
  0.287499994      -8.67575812E-18
  0.288749993      -4.81909717E-18
  0.289999992       1.01442832E-19
  0.291249990       5.70467632E-18
  0.292499989       1.14846393E-17
  0.293749988       1.68470039E-17
  0.294999987       2.11596209E-17
  0.296249986       2.38139475E-17
  0.297500014       2.42926369E-17
  0.298750013       2.22370766E-17
  0.300000012       1.75079576E-17
  0.301250011       1.02313995E-17
  0.302500010       8.23679622E-19
  0.303750008      -1.00113901E-17
  0.305000007      -2.13162657E-17
  0.306250006      -3.19457715E-17
  0.307500005      -4.06634015E-17
  0.308750004      -4.62617764E-17
  0.310000002      -4.76978050E-17
  0.311250001      -4.42298205E-17
  0.312500000      -3.55417109E-17
  0.313749999      -2.18383507E-17
  0.314999998      -3.89714565E-18
  0.316249996       1.69363444E-17
  0.317499995       3.88164793E-17
  0.318749994       5.95308123E-17
  0.319999993       7.66925799E-17
  0.321249992       8.79790888E-17
  0.322499990       9.13952124E-17
  0.323749989       8.55355509E-17
  0.324999988       6.98156650E-17
  0.326249987       4.46419914E-17
  0.327499986       1.14937673E-17
  0.328750014      -2.71035141E-17
  0.330000013      -6.77232355E-17
  0.331250012      -1.06299472E-16
  0.332500011      -1.38490337E-16
  0.333750010      -1.60113857E-16
  0.335000008      -1.67616875E-16
  0.336250007      -1.58528741E-16
  0.337500006      -1.31848818E-16
  0.338750005      -8.83181137E-17
  0.340000004      -3.05339231E-17
  0.341250002       3.71214869E-17
  0.342500001       1.08748952E-16
  0.343750000       1.77388657E-16
  0.344999999       2.35634481E-16
  0.346249998       2.76357205E-16
  0.347499996       2.93471214E-16
  0.348749995       2.82669479E-16
  0.349999994       2.42047394E-16
  0.351249993       1.72541300E-16
  0.352499992       7.81194466E-17
  0.353749990      -3.43162131E-17
  0.354999989      -1.55335387E-16
  0.356249988      -2.73678357E-16
  0.357499987      -3.77206377E-16
  0.358749986      -4.54031947E-16
  0.360000014      -4.93733917E-16
  0.361250013      -4.88543246E-16
  0.362500012      -4.34381577E-16
  0.363750011      -3.31634998E-16
  0.365000010      -1.85559045E-16
  0.366250008      -6.24285988E-18
  0.367500007       1.91911302E-16
  0.368750006       3.91188641E-16
  0.370000005       5.71990020E-16
  0.371250004       7.14593681E-16
  0.372500002       8.01103697E-16
  0.373750001       8.17416281E-16
  0.375000000       7.55002182E-16
  0.376249999       6.12314612E-16
  0.377499998       3.95635140E-16
  0.378749996       1.19219265E-16
  0.379999995      -1.95348165E-16
  0.381249994      -5.20601855E-16
  0.382499993      -8.25384109E-16
  0.383749992      -1.07762327E-15
  0.384999990      -1.24747286E-15
  0.386249989      -1.31053192E-15
  0.387499988      -1.25081271E-15
  0.388749987      -1.06312979E-15
  0.389999986      -7.54609794E-16
  0.391250014      -3.45080217E-16
  0.392500013       1.33806509E-16
  0.393750012       6.40732514E-16
  0.395000011       1.12805084E-15
  0.396250010       1.54604900E-15
  0.397500008       1.84778395E-15
  0.398750007       1.99402525E-15
  0.400000006       1.95781395E-15
  0.401250005       1.72813303E-15
  0.402500004       1.31224695E-15
  0.403750002       7.36372063E-16
  0.405000001       4.44896843E-17
  0.406250000      -7.04707589E-16
  0.407499999      -1.44255174E-15
  0.408749998      -2.09646097E-15
  0.409999996      -2.59679083E-15
  0.411249995      -2.88385941E-15
  0.412499994      -2.91445339E-15
  0.413749993      -2.66714899E-15
  0.414999992      -2.14585167E-15
  0.416249990      -1.38111771E-15
  0.417499989      -4.28995374E-16
  0.418749988       6.32640967E-16
  0.419999987       1.71006455E-15
  0.421249986       2.70154658E-15
  0.422500014       3.50644768E-15
  0.423750013       4.03480629E-15
  0.425000012       4.21653213E-15
  0.426250011       4.00936778E-15
  0.427500010       3.40479907E-15
  0.428750008       2.43124799E-15
  0.430000007       1.15407381E-15
  0.431250006      -3.27843282E-16
  0.432500005      -1.88886653E-15
  0.433750004      -3.38635006E-15
  0.435000002      -4.67274111E-15
  0.436250001      -5.60907716E-15
  0.437500000      -6.07878573E-15
  0.438749999      -6.00054869E-15
  0.439999998      -5.33891135E-15
  0.441249996      -4.11146066E-15
  0.442499995      -2.39158842E-15
  0.443749994      -3.06128057E-16
  0.444999993       1.97236598E-15
  0.446249992       4.23847960E-15
  0.447499990       6.27117063E-15
  0.448749989       7.85407235E-15
  0.449999988       8.79718509E-15
  0.451249987       8.95783336E-15
  0.452499986       8.25878638E-15
  0.453750014       6.70134309E-15
  0.455000013       4.37162852E-15
  0.456250012       1.43881368E-15
  0.457500011      -1.85525457E-15
  0.458750010      -5.21470879E-15
  0.460000008      -8.31530889E-15
  0.461250007      -1.08349863E-14
  0.462500006      -1.24864379E-14
  0.463750005      -1.30484926E-14
  0.465000004      -1.23928645E-14
  0.466250002      -1.05031044E-14
  0.467500001      -7.48327012E-15
  0.468750000      -3.55472454E-15
  0.469999999       9.59307376E-16
  0.471249998       5.66046369E-15
  0.472499996       1.01109891E-14
  0.473749995       1.38752518E-14
  0.474999994       1.65628230E-14
  0.476249993       1.78687191E-14
  0.477499992       1.76065217E-14
  0.478749990       1.57307096E-14
  0.479999989       1.23454629E-14
  0.481249988       7.69900179E-15
  0.482499987       2.16347525E-15
  0.483749986      -3.79745834E-15
  0.485000014      -9.67041846E-15
  0.486250013      -1.49390557E-14
  0.487500012      -1.91313132E-14
  0.488750011      -2.18623049E-14
  0.490000010      -2.28688867E-14
  0.491250008      -2.20325162E-14
  0.492500007      -1.93887027E-14
  0.493750006      -1.51224299E-14
  0.495000005      -9.55055228E-15
  0.496250004      -3.09337936E-15
  0.497500002       3.76149544E-15
  0.498750001       1.04993994E-14
  0.500000000       1.66192082E-14
  0.501250029       2.16707416E-14
  0.502499998       2.52861866E-14
  0.503750026       2.72035981E-14
  0.504999995       2.72810983E-14
  0.506250024       2.55019530E-14
  0.507499993       2.19706760E-14
  0.508750021       1.69017022E-14
  0.509999990       1.06018684E-14
  0.511250019       3.44865081E-15
  0.512499988      -4.13421747E-15
  0.513750017      -1.17020685E-14
  0.514999986      -1.88141501E-14
  0.516250014      -2.50564424E-14
  0.517499983      -3.00621209E-14
  0.518750012      -3.35280069E-14
  0.519999981      -3.52267755E-14
  0.521250010      -3.50151494E-14
  0.522499979      -3.28369737E-14
  0.523750007      -2.87228669E-14
  0.524999976      -2.27862603E-14
  0.526250005      -1.52174382E-14
  0.527499974      -6.27663569E-15
  0.528750002       3.71233068E-15
  0.529999971       1.43668020E-14
  0.531250000       2.52487071E-14
  0.532500029       3.58656823E-14
  0.533749998       4.56726399E-14
  0.535000026       5.40754677E-14
  0.536249995       6.04402596E-14
  0.537500024       6.41115850E-14
  0.538749993       6.44431950E-14
  0.540000021       6.08433592E-14
  0.541249990       5.28353877E-14
  0.542500019       4.01312589E-14
  0.543749988       2.27120484E-14
  0.545000017       9.09172872E-16
  0.546249986      -2.45275788E-14
  0.547500014      -5.23857216E-14
  0.548749983      -8.09835123E-14
  0.550000012      -1.08212525E-13
  0.551249981      -1.31637797E-13
  0.552500010      -1.48657101E-13
  0.553749979      -1.56715596E-13
  0.555000007      -1.53563102E-13
  0.556249976      -1.37533865E-13
  0.557500005      -1.07821812E-13
  0.558749974      -6.47196936E-14
  0.560000002      -9.78832883E-15
  0.561249971       5.40733331E-14
  0.562500000       1.22683547E-13
  0.563750029       1.90772149E-13
  0.564999998       2.52314825E-13
  0.566250026       3.00994120E-13
  0.567499995       3.30757177E-13
  0.568750024       3.36425603E-13
  0.569999993       3.14303081E-13
  0.571250021       2.62718883E-13
  0.572499990       1.82444907E-13
  0.573750019       7.69297413E-14
  0.574999988      -4.76942738E-14
  0.576250017      -1.82857473E-13
  0.577499986      -3.18054773E-13
  0.578750014      -4.41583754E-13
  0.579999983      -5.41472466E-13
  0.581250012      -6.06527524E-13
  0.582499981      -6.27417389E-13
  0.583750010      -5.97694745E-13
  0.584999979      -5.14657273E-13
  0.586250007      -3.79955317E-13
  0.587499976      -1.99869553E-13
  0.588750005       1.47957835E-14
  0.589999974       2.49227369E-13
  0.591250002       4.85512075E-13
  0.592499971       7.03899124E-13
  0.593750000       8.84329665E-13
  0.595000029       1.00812783E-12
  0.596249998       1.05971731E-12
  0.597500026       1.02822167E-12
  0.598749995       9.08801951E-13
  0.600000024       7.03592132E-13
  0.601249993       4.22124033E-13
  0.602500021       8.11631781E-14
  0.603749990      -2.96085042E-13
  0.605000019      -6.81380028E-13
  0.606249988      -1.04339237E-12
  0.607500017      -1.35007944E-12
  0.608749986      -1.57132315E-12
  0.610000014      -1.68162316E-12
  0.611249983      -1.66263130E-12
  0.612500012      -1.50529264E-12
  0.613749981      -1.21137670E-12
  0.615000010      -7.94223303E-13
  0.616249979      -2.78561598E-13
  0.617500007       3.00646525E-13
  0.618749976       9.00332109E-13
  0.620000005       1.47230839E-12
  0.621249974       1.96693486E-12
  0.622500002       2.33720161E-12
  0.623749971       2.54290838E-12
  0.625000000       2.55459261E-12
  0.626250029       2.35684302E-12
  0.627499998       1.95066489E-12
  0.628750026       1.35462193E-12
  0.629999995       6.04556227E-13
  0.631250024      -2.48185397E-13
  0.632499993      -1.13998177E-12
  0.633750021      -1.99945681E-12
  0.634999990      -2.75297125E-12
  0.636250019      -3.33070182E-12
  0.637499988      -3.67280945E-12
  0.638750017      -3.73517883E-12
  0.639999986      -3.49419712E-12
  0.641250014      -2.95010739E-12
  0.642499983      -2.12854669E-12
  0.643750012      -1.08002312E-12
  0.644999981       1.22755484E-13
  0.646250010       1.38961336E-12
  0.647499979       2.61941293E-12
  0.648750007       3.70789814E-12
  0.649999976       4.55628460E-12
  0.651250005       5.07990828E-12
  0.652499974       5.21619380E-12
  0.653750002       4.93123944E-12
  0.654999971       4.22435264E-12
  0.656250000       3.13005177E-12
  0.657500029       1.71719410E-12
  0.658749998       8.51550818E-14
  0.660000026      -1.64280362E-12
  0.661249995      -3.32855488E-12
  0.662500024      -4.82991858E-12
  0.663749993      -6.01240108E-12
  0.665000021      -6.76095204E-12
  0.666249990      -6.99072788E-12
  0.667500019      -6.65585295E-12
  0.668749988      -5.75538011E-12
  0.670000017      -4.33572145E-12
  0.671249986      -2.48919006E-12
  0.672500014      -3.48552106E-13
  0.673749983       1.92216165E-12
  0.675000012       4.13998653E-12
  0.676249981       6.11758864E-12
  0.677500010       7.67895643E-12
  0.678749979       8.67487245E-12
  0.680000007       8.99684320E-12
  0.681249976       8.58823256E-12
  0.682500005       7.45142750E-12
  0.683749974       5.65029317E-12
  0.685000002       3.30743571E-12
  0.686249971       5.96321820E-13
  0.687500000      -2.27134761E-12
  0.688750029      -5.06206145E-12
  0.689999998      -7.53949160E-12
  0.691250026      -9.48451040E-12
  0.692499995      -1.07144892E-11
  0.693750024      -1.11002423E-11
  0.694999993      -1.05789925E-11
  0.696250021      -9.16212679E-12
  0.697499990      -6.93686037E-12
  0.698750019      -4.06144519E-12
  0.699999988      -7.54170543E-13
  0.701250017       2.72316284E-12
  0.702499986       6.08600540E-12
  0.703750014       9.05039845E-12
  0.704999983       1.13569605E-11
  0.706250012       1.27935301E-11
  0.707499981       1.32143532E-11
  0.708750010       1.25542918E-11
  0.709999979       1.08364845E-11
  0.711250007       8.17282960E-12
  0.712499976       4.75695828E-12
  0.713750005       8.50177784E-13
  0.714999974      -3.23859689E-12
  0.716250002      -7.17737241E-12
  0.717499971      -1.06380972E-11
  0.718750000      -1.33239166E-11
  0.720000029      -1.49944709E-11
  0.721249998      -1.54869641E-11
  0.722500026      -1.47312718E-11
  0.723749995      -1.27576638E-11
  0.725000024      -9.69638432E-12
  0.726249993      -5.76901461E-12
  0.727500021      -1.27211327E-12
  0.728749990       3.44551384E-12
  0.730000019       8.01026086E-12
  0.731249988       1.20536098E-11
  0.732500017       1.52420750E-11
  0.733749986       1.73047271E-11
  0.735000014       1.80560081E-11
  0.736249983       1.74119226E-11
  0.737500012       1.53981203E-11
  0.738749981       1.21492955E-11
  0.740000010       7.89956295E-12
  0.741249979       2.96485015E-12
  0.742500007      -2.28162064E-12
  0.743749976      -7.43864258E-12
  0.745000005      -1.21088018E-11
  0.746249974      -1.59301791E-11
  0.747500002      -1.86053326E-11
  0.748749971      -1.99251986E-11
  0.750000000      -1.97858847E-11
  0.751250029      -1.81970116E-11
  0.752499998      -1.52808530E-11
  0.753750026      -1.12623478E-11
  0.754999995      -6.45076223E-12
  0.756250024      -1.21454994E-12
  0.757499993       4.04852974E-12
  0.758750021       8.94354295E-12
  0.759999990       1.31101111E-11
  0.761250019       1.62511098E-11
  0.762499988       1.81558883E-11
  0.763750017       1.87162178E-11
  0.764999986       1.79334742E-11
  0.766250014       1.59166708E-11
  0.767499983       1.28713767E-11
  0.768750012       9.08059478E-12
  0.769999981       4.87926236E-12
  0.771250010       6.24491940E-13
  0.772499979      -3.33580277E-12
  0.773750007      -6.69313173E-12
  0.774999976      -9.20502129E-12
  0.776250005      -1.07154242E-11
  0.777499974      -1.11672399E-11
  0.778750002      -1.06057975E-11
  0.779999971      -9.17289508E-12
  0.781250000      -7.09180241E-12
  0.782500029      -4.64464751E-12
  0.783749998      -2.14394539E-12
  0.785000026       9.89372633E-14
  0.786249995       1.80574349E-12
  0.787500024       2.76052401E-12
  0.788749993       2.83327918E-12
  0.790000021       1.99575599E-12
  0.791249990       3.27499231E-13
  0.792500019      -1.98873730E-12
  0.793749988      -4.68211494E-12
  0.795000017      -7.41838101E-12
  0.796249986      -9.83205357E-12
  0.797500014      -1.15634837E-11
  0.798749983      -1.22969777E-11
  0.800000012      -1.17970746E-11
  0.801249981      -9.93843376E-12
  0.802500010      -6.72681832E-12
  0.803749979      -2.30823281E-12
  0.805000007       3.03522442E-12
  0.806249976       8.90310048E-12
  0.807500005       1.48070653E-11
  0.808749974       2.02117906E-11
  0.810000002       2.45830734E-11
  0.811249971       2.74387978E-11
  0.812500000       2.83982178E-11
  0.813750029       2.72246288E-11
  0.814999998       2.38571732E-11
  0.816250026       1.84281427E-11
  0.817499995       1.12634598E-11
  0.818750024       2.86533579E-12
  0.819999993      -6.12184435E-12
  0.821250021      -1.49602518E-11
  0.822499990      -2.28778559E-11
  0.823750019      -2.91333589E-11
  0.824999988      -3.30809130E-11
  0.826250017      -3.42285401E-11
  0.827499986      -3.22850982E-11
  0.828750014      -2.71906334E-11
  0.829999983      -1.91273108E-11
  0.831250012      -8.50909794E-12
  0.832499981       4.04908702E-12
  0.833750010       1.77806537E-11
  0.834999979       3.18306596E-11
  0.836250007       4.53280295E-11
  0.837499976       5.74596933E-11
  0.838750005       6.75406397E-11
  0.839999974       7.50730797E-11
  0.841250002       7.97896679E-11
  0.842499971       8.16768320E-11
  0.843750000       8.09766004E-11
  0.845000029       7.81663415E-11
  0.846249998       7.39195649E-11
  0.847500026       6.90510218E-11
  0.848749995       6.44524642E-11
  0.850000024       6.10236237E-11
  0.851249993       5.96085195E-11
  0.852500021       6.09384973E-11
  0.853749990       6.55917126E-11
  0.855000019       7.39692335E-11
  0.856249988       8.62911478E-11
  0.857500017       1.02610684E-10
  0.858749986       1.22846622E-10
  0.860000014       1.46826204E-10
  0.861249983       1.74335088E-10
  0.862500012       2.05169229E-10
  0.863749981       2.39180342E-10
  0.865000010       2.76311196E-10
  0.866249979       3.16617510E-10
  0.867500007       3.60273089E-10
  0.868749976       4.07557738E-10
  0.870000005       4.58834276E-10