 -0.200000003       0.00000000    
 -0.198750004       0.00000000    
 -0.197500005       0.00000000    
 -0.196250007       0.00000000    
 -0.194999993       0.00000000    
 -0.193749994       0.00000000    
 -0.192499995       0.00000000    
 -0.191249996       0.00000000    
 -0.189999998      -1.61870311E-33
 -0.188749999      -3.98637053E-32
 -0.187500000      -4.61051548E-31
 -0.186250001      -3.44399307E-30
 -0.185000002      -1.89361495E-29
 -0.183750004      -8.21121135E-29
 -0.182500005      -2.92213117E-28
 -0.181250006      -8.72392724E-28
 -0.180000007      -2.20055003E-27
 -0.178749993      -4.63317269E-27
 -0.177499995      -7.71026024E-27
 -0.176249996      -8.03185972E-27
 -0.174999997       5.06078653E-27
 -0.173749998       5.64319845E-26
 -0.172499999       1.93435855E-25
 -0.171250001       4.90515979E-25
 -0.170000002       1.03915631E-24
 -0.168750003       1.90525351E-24
 -0.167500004       3.03152619E-24
 -0.166250005       4.06700908E-24
 -0.165000007       4.12745988E-24
 -0.163749993       1.53731103E-24
 -0.162499994      -6.32280851E-24
 -0.161249995      -2.28506546E-23
 -0.159999996      -5.14550082E-23
 -0.158749998      -9.39007641E-23
 -0.157499999      -1.47618165E-22
 -0.156250000      -2.02167102E-22
 -0.155000001      -2.35612558E-22
 -0.153750002      -2.12299080E-22
 -0.152500004      -8.42293610E-23
 -0.151250005       2.01360836E-22
 -0.150000006       6.86001774E-22
 -0.148750007       1.37486798E-21
 -0.147499993       2.20480408E-21
 -0.146249995       3.01203643E-21
 -0.144999996       3.51098346E-21
 -0.143749997       3.29967213E-21
 -0.142499998       1.90857649E-21
 -0.141249999      -1.09401533E-21
 -0.140000001      -5.93755898E-21
 -0.138750002      -1.24411930E-20
 -0.137500003      -1.98012692E-20
 -0.136250004      -2.64387636E-20
 -0.135000005      -2.99897853E-20
 -0.133750007      -2.75258792E-20
 -0.132499993      -1.60692549E-20
 -0.131249994       6.58479227E-21
 -0.129999995       4.08104871E-20
 -0.128749996       8.40377245E-20
 -0.127499998       1.29867964E-19
 -0.126249999       1.67784178E-19
 -0.125000000       1.83831211E-19
 -0.123750001       1.62555311E-19
 -0.122500002       9.02835068E-20
 -0.121250004      -4.05004333E-20
 -0.119999997      -2.26327938E-19
 -0.118749999      -4.48512941E-19
 -0.117500000      -6.70860020E-19
 -0.116250001      -8.40728487E-19
 -0.115000002      -8.94604104E-19
 -0.113750003      -7.68664512E-19
 -0.112499997      -4.13779498E-19
 -0.111249998       1.86920381E-19
 -0.109999999       1.00111033E-18
 -0.108750001       1.93522461E-18
 -0.107500002       2.83194961E-18
 -0.106250003       3.48133395E-18
 -0.104999997       3.64786733E-18
 -0.103749998       3.11300035E-18
 -0.102499999       1.72887903E-18
 -0.101250000      -5.24880995E-19
 -0.100000001      -3.49289049E-18
  -9.87500027E-02  -6.81746669E-18
  -9.74999964E-02  -9.94658217E-18
  -9.62499976E-02  -1.21853539E-17
  -9.49999988E-02  -1.27934740E-17
  -9.37500000E-02  -1.11218644E-17
  -9.25000012E-02  -6.77160117E-18
  -9.12500024E-02   2.51321122E-19
  -9.00000036E-02   9.41824537E-18
  -8.87499973E-02   1.96312591E-17
  -8.74999985E-02   2.92763869E-17
  -8.62499997E-02   3.63923768E-17
  -8.50000009E-02   3.89517167E-17
  -8.37500021E-02   3.52272665E-17
  -8.25000033E-02   2.41945035E-17
  -8.12499970E-02   5.90051878E-18
  -7.99999982E-02  -1.82786633E-17
  -7.87499994E-02  -4.55671929E-17
  -7.75000006E-02  -7.19606369E-17
  -7.62500018E-02  -9.26612024E-17
  -7.50000030E-02  -1.02753765E-16
  -7.37499967E-02  -9.80497414E-17
  -7.24999979E-02  -7.59798745E-17
  -7.12499991E-02  -3.63846080E-17
  -7.00000003E-02   1.79598662E-17
  -6.87500015E-02   8.12243782E-17
  -6.75000027E-02   1.44915902E-16
  -6.62499964E-02   1.98797693E-16
  -6.49999976E-02   2.32275122E-16
  -6.37499988E-02   2.36089099E-16
  -6.25000000E-02   2.04079036E-16
  -6.12500012E-02   1.34726599E-16
  -5.99999987E-02   3.21842708E-17
  -5.87499999E-02  -9.34643219E-17
  -5.75000010E-02  -2.26872402E-16
  -5.62499985E-02  -3.49052722E-16
  -5.49999997E-02  -4.39824637E-16
  -5.37500009E-02  -4.80799935E-16
  -5.24999984E-02  -4.58495123E-16
  -5.12499996E-02  -3.67083486E-16
  -5.00000007E-02  -2.10299514E-16
  -4.87499982E-02  -2.08705155E-18
  -4.74999994E-02   2.34260699E-16
  -4.62500006E-02   4.68506470E-16
  -4.50000018E-02   6.67212299E-16
  -4.37499993E-02   7.98377045E-16
  -4.25000004E-02   8.36336298E-16
  -4.12500016E-02   7.66187941E-16
  -3.99999991E-02   5.87011038E-16
  -3.87500003E-02   3.13267883E-16
  -3.75000015E-02  -2.59889875E-17
  -3.62499990E-02  -3.90170401E-16
  -3.50000001E-02  -7.32180044E-16
  -3.37500013E-02  -1.00480077E-15
  -3.24999988E-02  -1.16755498E-15
  -3.12500000E-02  -1.19301298E-15
  -2.99999993E-02  -1.07153194E-15
  -2.87500005E-02  -8.13581234E-16
  -2.74999999E-02  -4.49129479E-16
  -2.62499992E-02  -2.40008738E-17
  -2.50000004E-02   4.06413370E-16
  -2.37499997E-02   7.85249994E-16
  -2.25000009E-02   1.06288182E-15
  -2.12500002E-02   1.20486096E-15
  -1.99999996E-02   1.19774027E-15
  -1.87500007E-02   1.05166668E-15
  -1.75000001E-02   7.99090353E-16
  -1.62499994E-02   4.89534645E-16
  -1.49999997E-02   1.81034962E-16
  -1.37499999E-02  -7.05214155E-17
  -1.25000002E-02  -2.22445384E-16
  -1.12500004E-02  -2.54736821E-16
  -9.99999978E-03  -1.76132812E-16
  -8.75000004E-03  -2.52203862E-17
  -7.49999983E-03   1.34193749E-16
  -6.25000009E-03   2.23358882E-16
  -4.99999989E-03   1.63404263E-16
  -3.74999992E-03  -1.07324626E-16
  -2.49999994E-03  -6.16176712E-16
  -1.24999997E-03  -1.34247226E-15
   0.00000000      -2.21015587E-15
   1.24999997E-03  -3.08921767E-15
   2.49999994E-03  -3.80717381E-15
   3.74999992E-03  -4.17043321E-15
   4.99999989E-03  -3.99372646E-15
   6.25000009E-03  -3.13416018E-15
   7.49999983E-03  -1.52517367E-15
   8.75000004E-03   7.95091511E-16
   9.99999978E-03   3.66650493E-15
   1.12500004E-02   6.80540913E-15
   1.25000002E-02   9.82183576E-15
   1.37499999E-02   1.22561237E-14
   1.49999997E-02   1.36327784E-14
   1.62499994E-02   1.35265156E-14
   1.75000001E-02   1.16328718E-14
   1.87500007E-02   7.83392651E-15
   1.99999996E-02   2.24895188E-15
   2.12500002E-02  -4.73955930E-15
   2.25000009E-02  -1.24919792E-14
   2.37499997E-02  -2.01538259E-14
   2.50000004E-02  -2.67338896E-14
   2.62499992E-02  -3.12128727E-14
   2.74999999E-02  -3.26723410E-14
   2.87500005E-02  -3.04295976E-14
   2.99999993E-02  -2.41614285E-14
   3.12500000E-02  -1.39988796E-14
   3.24999988E-02  -5.76771892E-16
   3.37500013E-02   1.49744363E-14
   3.50000001E-02   3.11008780E-14
   3.62499990E-02   4.59604583E-14
   3.75000015E-02   5.76116032E-14
   3.87500003E-02   6.42382740E-14
   3.99999991E-02   6.43872095E-14
   4.12500016E-02   5.71892726E-14
   4.25000004E-02   4.25355145E-14
   4.37499993E-02   2.11811600E-14
   4.50000018E-02  -5.24320467E-15
   4.62500006E-02  -3.43245397E-14
   4.74999994E-02  -6.30640492E-14
   4.87499982E-02  -8.81645560E-14
   5.00000007E-02  -1.06383096E-13
   5.12499996E-02  -1.14913043E-13
   5.24999984E-02  -1.11753041E-13
   5.37500009E-02  -9.60178592E-14
   5.49999997E-02  -6.81491810E-14
   5.62499985E-02  -2.99926472E-14
   5.75000010E-02   1.52796002E-14
   5.87499999E-02   6.34050985E-14
   5.99999987E-02   1.09411978E-13
   6.12500012E-02   1.48112588E-13
   6.25000000E-02   1.74662300E-13
   6.37499988E-02   1.85124905E-13
   6.49999976E-02   1.76981002E-13
   6.62499964E-02   1.49517646E-13
   6.75000027E-02   1.04047006E-13
   6.87500015E-02   4.39174962E-14
   7.00000003E-02  -2.56980767E-14
   7.12499991E-02  -9.82287372E-14
   7.24999979E-02  -1.66312873E-13
   7.37499967E-02  -2.22531683E-13
   7.50000030E-02  -2.60196107E-13
   7.62500018E-02  -2.74104605E-13
   7.75000006E-02  -2.61187935E-13
   7.87499994E-02  -2.20964767E-13
   7.99999982E-02  -1.55748569E-13
   8.12499970E-02  -7.05705703E-14
   8.25000033E-02   2.71880551E-14
   8.37500021E-02   1.28430320E-13
   8.50000009E-02   2.23189522E-13
   8.62499997E-02   3.01608348E-13
   8.74999985E-02   3.54953968E-13
   8.87499973E-02   3.76564692E-13
   9.00000036E-02   3.62626162E-13
   9.12500024E-02   3.12689436E-13
   9.25000012E-02   2.29866961E-13
   9.37500000E-02   1.20673599E-13
   9.49999988E-02  -5.48400174E-15
   9.62499976E-02  -1.37130230E-13
   9.74999964E-02  -2.61781807E-13
   9.87500027E-02  -3.67147502E-13
  0.100000001      -4.42348632E-13
  0.101250000      -4.79037491E-13
  0.102499999      -4.72297494E-13
  0.103749998      -4.21228943E-13
  0.104999997      -3.29153181E-13
  0.106250003      -2.03405733E-13
  0.107500002      -5.47297159E-14
  0.108750001       1.03678161E-13
  0.109999999       2.57380949E-13
  0.111249998       3.92058212E-13
  0.112499997       4.94874270E-13
  0.113750003       5.55722948E-13
  0.115000002       5.68224829E-13
  0.116250001       5.30376361E-13
  0.117500000       4.44784292E-13
  0.118749999       3.18460292E-13
  0.119999997       1.62194056E-13
  0.121250004      -1.04346556E-14
  0.122500002      -1.84308555E-13
  0.123750001      -3.44167023E-13
  0.125000000      -4.76006170E-13
  0.126249999      -5.68349187E-13
  0.127499998      -6.13265677E-13
  0.128749996      -6.07045230E-13
  0.129999995      -5.50467115E-13
  0.131249994      -4.48648822E-13
  0.132499993      -3.10498616E-13
  0.133750007      -1.47836374E-13
  0.135000005       2.57221189E-14
  0.136250004       1.96001689E-13
  0.137500003       3.49502328E-13
  0.138750002       4.74514308E-13
  0.140000001       5.62014844E-13
  0.141249999       6.06274579E-13
  0.142499998       6.05136601E-13
  0.143749997       5.59967166E-13
  0.144999996       4.75310546E-13
  0.146249995       3.58309221E-13
  0.147499993       2.17969265E-13
  0.148750007       6.43588779E-14
  0.150000006      -9.21751824E-14
  0.151250005      -2.41701922E-13
  0.152500004      -3.75261400E-13
  0.153750002      -4.85256421E-13
  0.155000001      -5.65682863E-13
  0.156250000      -6.12222783E-13
  0.157499999      -6.22242221E-13
  0.158749998      -5.94740945E-13
  0.159999996      -5.30299979E-13
  0.161249995      -4.31060325E-13
  0.162499994      -3.00746190E-13
  0.163749993      -1.44723738E-13
  0.165000007       2.99373936E-14
  0.166250005       2.14451531E-13
  0.167500004       3.98414808E-13
  0.168750003       5.70074749E-13
  0.170000002       7.16818911E-13
  0.171250001       8.25904612E-13
  0.172499999       8.85417174E-13
  0.173749998       8.85402320E-13
  0.174999997       8.19079017E-13
  0.176249996       6.84004340E-13
  0.177499995       4.83039878E-13
  0.178749993       2.24963982E-13
  0.180000007      -7.54095273E-14
  0.181250006      -3.97709670E-13
  0.182500005      -7.17131541E-13
  0.183750004      -1.00618147E-12
  0.185000002      -1.23694512E-12
  0.186250001      -1.38370359E-12
  0.187500000      -1.42565896E-12
  0.188749999      -1.34948866E-12
  0.189999998      -1.15143214E-12
  0.191249996      -8.38632495E-13
  0.192499995      -4.29509916E-13
  0.193749994       4.69741738E-14
  0.194999993       5.53192312E-13
  0.196250007       1.04577393E-12
  0.197500005       1.47936101E-12
  0.198750004       1.81087046E-12
  0.200000003       2.00385498E-12
  0.201250002       2.03251348E-12
  0.202500001       1.88490152E-12
  0.203749999       1.56495097E-12
  0.204999998       1.09300850E-12
  0.206249997       5.04741323E-13
  0.207499996      -1.51568875E-13
  0.208749995      -8.19152038E-13
  0.209999993      -1.43793733E-12
  0.211250007      -1.95030927E-12
  0.212500006      -2.30685523E-12
  0.213750005      -2.47149610E-12
  0.215000004      -2.42543594E-12
  0.216250002      -2.16946600E-12
  0.217500001      -1.72432262E-12
  0.218750000      -1.12899772E-12
  0.219999999      -4.37121639E-13
  0.221249998       2.88243984E-13
  0.222499996       9.80883343E-13
  0.223749995       1.57811719E-12
  0.224999994       2.02718549E-12
  0.226249993       2.29061843E-12
  0.227500007       2.34999086E-12
  0.228750005       2.20762037E-12
  0.230000004       1.88599462E-12
  0.231250003       1.42497407E-12
  0.232500002       8.77069305E-13
  0.233750001       3.01322254E-13
  0.234999999      -2.43504219E-13
  0.236249998      -7.05634281E-13
  0.237499997      -1.04608238E-12
  0.238749996      -1.24285185E-12
  0.239999995      -1.29300444E-12
  0.241249993      -1.21232831E-12
  0.242500007      -1.03262581E-12
  0.243750006      -7.96929851E-13
  0.245000005      -5.53234216E-13
  0.246250004      -3.47519106E-13
  0.247500002      -2.16964765E-13
  0.248750001      -1.84247772E-13
  0.250000000      -2.53721794E-13
  0.251249999      -4.10055372E-13
  0.252499998      -6.19607664E-13
  0.253749996      -8.34487210E-13
  0.254999995      -9.98895194E-13
  0.256249994      -1.05703499E-12
  0.257499993      -9.61622925E-13
  0.258749992      -6.81911775E-13
  0.259999990      -2.10156193E-13
  0.261249989       4.34449135E-13
  0.262499988       1.20505624E-12
  0.263749987       2.02999379E-12
  0.264999986       2.81906855E-12
  0.266250014       3.47280104E-12
  0.267500013       3.89370220E-12
  0.268750012       3.99837975E-12
  0.270000011       3.72903531E-12
  0.271250010       3.06297132E-12
  0.272500008       2.01884234E-12
  0.273750007       6.58661927E-13
  0.275000006      -9.14936638E-13
  0.276250005      -2.56624062E-12
  0.277500004      -4.13823619E-12
  0.278750002      -5.46760207E-12
  0.280000001      -6.40149002E-12
  0.281250000      -6.81431170E-12
  0.282499999      -6.62269111E-12
  0.283749998      -5.79690853E-12
  0.284999996      -4.36744477E-12
  0.286249995      -2.42559531E-12
  0.287499994      -1.17882998E-13
  0.288749993       2.36549712E-12
  0.289999992       4.80722623E-12
  0.291249990       6.98283445E-12
  0.292499989       8.68233176E-12
  0.293749988       9.73116813E-12
  0.294999987       1.00085122E-11
  0.296249986       9.46085744E-12
  0.297500014       8.10934306E-12
  0.298750013       6.05014953E-12
  0.300000012       3.44750118E-12
  0.301250011       5.19911208E-13
  0.302500010      -2.47886282E-12
  0.303750008      -5.28274169E-12
  0.305000007      -7.63779665E-12
  0.306250006      -9.32577279E-12
  0.307500005      -1.01844557E-11
  0.308750004      -1.01229979E-11
  0.310000002      -9.13059125E-12
  0.311250001      -7.27756744E-12
  0.312500000      -4.70919961E-12
  0.313749999      -1.63227212E-12
  0.314999998       1.70393192E-12
  0.316249996       5.02975569E-12
  0.317499995       8.07943729E-12
  0.318749994       1.06145032E-11
  0.319999993       1.24441438E-11
  0.321249992       1.34409922E-11
  0.322499990       1.35503093E-11
  0.323749989       1.27927842E-11
  0.324999988       1.12606886E-11
  0.326249987       9.10753417E-12
  0.327499986       6.53235669E-12
  0.328750014       3.76121009E-12
  0.330000013       1.02664069E-12
  0.331250012      -1.45242108E-12
  0.332500011      -3.48786299E-12
  0.333750010      -4.93716179E-12
  0.335000008      -5.71212478E-12
  0.336250007      -5.78175051E-12
  0.337500006      -5.17219123E-12
  0.338750005      -3.96064345E-12
  0.340000004      -2.26388071E-12
  0.341250002      -2.25746640E-13
  0.342500001       1.99718020E-12
  0.343750000       4.25002308E-12
  0.344999999       6.39217368E-12
  0.346249998       8.30702694E-12
  0.347499996       9.91003633E-12
  0.348749995       1.11493141E-11
  0.349999994       1.20054201E-11
  0.351249993       1.24914124E-11
  0.352499992       1.26472131E-11
  0.353749990       1.25302928E-11
  0.354999989       1.22058969E-11
  0.356249988       1.17418245E-11
  0.357499987       1.11978491E-11
  0.358749986       1.06233997E-11
  0.360000014       1.00545258E-11
  0.361250013       9.50811478E-12
  0.362500012       8.98814270E-12
  0.363750011       8.48618745E-12
  0.365000010       7.98581687E-12
  0.366250008       7.46654908E-12
  0.367500007       6.91039587E-12
  0.368750006       6.30740989E-12
  0.370000005       5.65879418E-12
  0.371250004       4.98001293E-12
  0.372500002       4.30592671E-12
  0.373750001       3.68985311E-12
  0.375000000       3.19156550E-12
  0.376249999       2.87388906E-12
  0.377499998       2.79788844E-12
  0.378749996       3.01726287E-12
  0.379999995       3.57602793E-12
  0.381249994       4.48307494E-12
  0.382499993       5.71627858E-12
  0.383749992       7.22774965E-12
  0.384999990       8.93074763E-12
  0.386249989       1.07138248E-11
  0.387499988       1.24370410E-11
  0.388749987       1.39507720E-11
  0.389999986       1.51089714E-11
  0.391250014       1.57684733E-11
  0.392500013       1.58105820E-11
  0.393750012       1.51696242E-11
  0.395000011       1.38311636E-11
  0.396250010       1.18290933E-11
  0.397500008       9.28328161E-12
  0.398750007       6.36016673E-12
  0.400000006       3.26098913E-12
  0.401250005       2.41362838E-13
  0.402500004      -2.42819155E-12
  0.403750002      -4.48495928E-12
  0.405000001      -5.71646116E-12
  0.406250000      -5.96333096E-12
  0.407499999      -5.15754973E-12
  0.408749998      -3.34782809E-12
  0.409999996      -6.50044905E-13
  0.411249995       2.69216550E-12
  0.412499994       6.35534854E-12
  0.413749993       9.97202147E-12
  0.414999992       1.31394669E-11
  0.416249990       1.54900606E-11
  0.417499989       1.66875385E-11
  0.418749988       1.64865482E-11
  0.419999987       1.47794710E-11
  0.421249986       1.16200504E-11
  0.422500014       7.17595731E-12
  0.423750013       1.74887524E-12
  0.425000012      -4.21795671E-12
  0.426250011      -1.02188865E-11
  0.427500010      -1.57108181E-11
  0.428750008      -2.01335199E-11
  0.430000007      -2.29938395E-11
  0.431250006      -2.39581948E-11
  0.432500005      -2.28654300E-11
  0.433750004      -1.97487044E-11
  0.435000002      -1.47789749E-11
  0.436250001      -8.32826256E-12
  0.437500000      -9.46999423E-13
  0.438749999       6.70493132E-12
  0.439999998       1.39242168E-11
  0.441249996       2.00467472E-11
  0.442499995       2.44262544E-11
  0.443749994       2.65927679E-11
  0.444999993       2.62650561E-11
  0.446249992       2.33810280E-11
  0.447499990       1.81401040E-11
  0.448749989       1.09529798E-11
  0.449999988       2.45618174E-12
  0.451249987      -6.58523756E-12
  0.452499986      -1.53449562E-11
  0.453750014      -2.29981780E-11
  0.455000013      -2.88172940E-11
  0.456250012      -3.22150744E-11
  0.457500011      -3.28187373E-11
  0.458750010      -3.04961160E-11
  0.460000008      -2.54305500E-11
  0.461250007      -1.80779263E-11
  0.462500006      -9.03345541E-12
  0.463750005       1.00154553E-12
  0.465000004       1.11917168E-11
  0.466250002       2.07049846E-11
  0.467500001       2.88309931E-11
  0.468750000       3.49677266E-11
  0.469999999       3.86638742E-11
  0.471249998       3.97805816E-11
  0.472499996       3.84943813E-11
  0.473749995       3.51453103E-11
  0.474999994       3.01687147E-11
  0.476249993       2.43132129E-11
  0.477499992       1.82802402E-11
  0.478749990       1.26633625E-11
  0.479999989       8.17997840E-12
  0.481249988       5.34017101E-12
  0.482499987       4.51643107E-12
  0.483749986       5.68035376E-12
  0.485000014       8.62176389E-12
  0.486250013       1.31022502E-11
  0.487500012       1.85895969E-11
  0.488750011       2.45921391E-11
  0.490000010       3.06332390E-11
  0.491250008       3.61714443E-11
  0.492500007       4.08529877E-11
  0.493750006       4.44823518E-11
  0.495000005       4.69914836E-11
  0.496250004       4.85900174E-11
  0.497500002       4.96239785E-11
  0.498750001       5.02108563E-11
  0.500000000       5.05174409E-11
  0.501250029       5.08356447E-11
  0.502499998       5.11695755E-11
  0.503750026       5.13858955E-11
  0.504999995       5.13635939E-11
  0.506250024       5.09971509E-11
  0.507499993       4.99910113E-11
  0.508750021       4.79484473E-11
  0.509999990       4.45732028E-11
  0.511250019       3.96413249E-11
  0.512499988       3.30086791E-11
  0.513750017       2.48152939E-11
  0.514999986       1.53926386E-11
  0.516250014       5.10880140E-12
  0.517499983      -5.28219916E-12
  0.518750012      -1.49992310E-11
  0.519999981      -2.32155024E-11
  0.521250010      -2.91476496E-11
  0.522499979      -3.22090306E-11
  0.523750007      -3.18732193E-11
  0.524999976      -2.79182597E-11
  0.526250005      -2.07252670E-11
  0.527499974      -1.10144558E-11
  0.528750002       5.34334892E-13
  0.529999971       1.28195380E-11
  0.531250000       2.44907514E-11
  0.532500029       3.43385390E-11
  0.533749998       4.14690886E-11
  0.535000026       4.50455159E-11
  0.536249995       4.44832886E-11
  0.537500024       3.98604032E-11
  0.538749993       3.15293971E-11
  0.540000021       2.00451634E-11
  0.541249990       6.18695503E-12
  0.542500019      -8.84195408E-12
  0.543749988      -2.37230895E-11
  0.545000017      -3.72605106E-11
  0.546249986      -4.85168017E-11
  0.547500014      -5.68351616E-11
  0.548749983      -6.17381909E-11
  0.550000012      -6.32513625E-11
  0.551249981      -6.17386420E-11
  0.552500010      -5.76885935E-11
  0.553749979      -5.20157632E-11
  0.555000007      -4.57017792E-11
  0.556249976      -3.97537628E-11
  0.557500005      -3.51053769E-11
  0.558749974      -3.23189912E-11
  0.560000002      -3.17881173E-11
  0.561249971      -3.36822618E-11
  0.562500000      -3.77737598E-11
  0.563750029      -4.33773573E-11
  0.564999998      -4.96978257E-11
  0.566250026      -5.57758874E-11
  0.567499995      -6.07642964E-11
  0.568750024      -6.39431286E-11
  0.569999993      -6.50357129E-11
  0.571250021      -6.38540470E-11
  0.572499990      -6.03775918E-11
  0.573750019      -5.53909904E-11
  0.574999988      -4.98095280E-11
  0.576250017      -4.48856161E-11
  0.577499986      -4.17460025E-11
  0.578750014      -4.10886811E-11
  0.579999983      -4.36650403E-11
  0.581250012      -4.96224208E-11
  0.582499981      -5.86774795E-11
  0.583750010      -7.01679062E-11
  0.584999979      -8.27248617E-11
  0.586250007      -9.51085183E-11
  0.587499976      -1.05845645E-10
  0.588750005      -1.13298336E-10
  0.589999974      -1.15971212E-10
  0.591250002      -1.12645282E-10
  0.592499971      -1.03100119E-10
  0.593750000      -8.76116887E-11
  0.595000029      -6.70751510E-11
  0.596249998      -4.30178219E-11
  0.597500026      -1.72636263E-11
  0.598749995       7.76248944E-12
  0.600000024       2.96481693E-11
  0.601249993       4.63754972E-11
  0.602500021       5.62170623E-11
  0.603749990       5.83061030E-11
  0.605000019       5.24169146E-11
  0.606249988       3.87953940E-11
  0.607500017       1.87697011E-11
  0.608749986      -5.36436260E-12
  0.610000014      -3.08858598E-11
  0.611249983      -5.47166860E-11
  0.612500012      -7.36740252E-11
  0.613749981      -8.53227558E-11
  0.615000010      -8.78875792E-11
  0.616249979      -8.05402967E-11
  0.617500007      -6.31858871E-11
  0.618749976      -3.66746807E-11
  0.620000005      -3.14067435E-12
  0.621249974       3.41897760E-11
  0.622500002       7.15400031E-11
  0.623749971       1.05264922E-10
  0.625000000       1.31935990E-10
  0.626250029       1.48682511E-10
  0.627499998       1.53801125E-10
  0.628750026       1.46664708E-10
  0.629999995       1.27898400E-10
  0.631250024       9.95507426E-11
  0.632499993       6.45531822E-11
  0.633750021       2.67221835E-11
  0.634999990      -9.90959224E-12
  0.636250019      -4.12310741E-11
  0.637499988      -6.37095030E-11
  0.638750017      -7.47457166E-11
  0.639999986      -7.27823773E-11
  0.641250014      -5.76326278E-11
  0.642499983      -3.06574349E-11
  0.643750012       5.63301229E-12
  0.644999981       4.79887102E-11
  0.646250010       9.25294702E-11
  0.647499979       1.35003952E-10
  0.648750007       1.71060235E-10
  0.649999976       1.97042424E-10
  0.651250005       2.10287995E-10
  0.652499974       2.09464959E-10
  0.653750002       1.94655944E-10
  0.654999971       1.67289890E-10
  0.656250000       1.29932148E-10
  0.657500029       8.60452889E-11
  0.658749998       3.97782918E-11
  0.660000026      -4.44731404E-12
  0.661249995      -4.23576590E-11
  0.662500024      -7.03394634E-11
  0.663749993      -8.62827865E-11
  0.665000021      -8.90584759E-11
  0.666249990      -7.88623125E-11
  0.667500019      -5.73460099E-11
  0.668749988      -2.71993383E-11
  0.670000017       8.02311169E-12
  0.671249986       4.44920871E-11
  0.672500014       7.78970985E-11
  0.673749983       1.04208885E-10
  0.675000012       1.20611382E-10
  0.676249981       1.25609467E-10
  0.677500010       1.18484556E-10
  0.678749979       9.99178934E-11
  0.680000007       7.17541582E-11
  0.681249976       3.65689146E-11
  0.682500005      -2.13312549E-12
  0.683749974      -4.03590911E-11
  0.685000002      -7.44737536E-11
  0.686249971      -1.01268653E-10
  0.687500000      -1.17973506E-10
  0.688750029      -1.22974270E-10
  0.689999998      -1.16102995E-10
  0.691250026      -9.82997156E-11
  0.692499995      -7.18887241E-11
  0.693750024      -3.93640294E-11
  0.694999993      -3.69167891E-12
  0.696250021       3.11827543E-11
  0.697499990       6.21055082E-11
  0.698750019       8.62749594E-11
  0.699999988       1.01791270E-10
  0.701250017       1.07394531E-10
  0.702499986       1.03017837E-10
  0.703750014       8.99365929E-11
  0.704999983       7.00377256E-11
  0.706250012       4.56847025E-11
  0.707499981       1.95663520E-11
  0.708750010      -5.54820556E-12
  0.709999979      -2.75462153E-11
  0.711250007      -4.44876948E-11
  0.712499976      -5.50740079E-11
  0.713750005      -5.87530163E-11
  0.714999974      -5.59134718E-11
  0.716250002      -4.75713739E-11
  0.717499971      -3.52432111E-11
  0.718750000      -2.07910252E-11
  0.720000029      -5.62050146E-12
  0.721249998       8.55655737E-12
  0.722500026       2.02809401E-11
  0.723749995       2.90174187E-11
  0.725000024       3.44918052E-11
  0.726249993       3.68318015E-11
  0.727500021       3.68975336E-11
  0.728749990       3.54458372E-11
  0.730000019       3.33725200E-11
  0.731249988       3.17142423E-11
  0.732500017       3.10982559E-11
  0.733749986       3.18588454E-11
  0.735000014       3.41781811E-11
  0.736249983       3.81971121E-11
  0.737500012       4.38104691E-11
  0.738749981       5.06182388E-11
  0.740000010       5.78842391E-11
  0.741249979       6.48309809E-11
  0.742500007       7.03504338E-11
  0.743749976       7.38679326E-11
  0.745000005       7.53459239E-11
  0.746249974       7.44576276E-11
  0.747500002       7.17777088E-11
  0.748749971       6.81343731E-11
  0.750000000       6.36647193E-11
  0.751250029       5.88288585E-11
  0.752499998       5.49019510E-11
  0.753750026       5.31328696E-11
  0.754999995       5.31065782E-11
  0.756250024       5.48211962E-11
  0.757499993       5.84457413E-11
  0.758750021       6.34647057E-11
  0.759999990       6.97090718E-11
  0.761250019       7.65666072E-11
  0.762499988       8.35161662E-11
  0.763750017       8.99164077E-11
  0.764999986       9.54912607E-11
  0.766250014       1.00452008E-10
  0.767499983       1.04997483E-10
  0.768750012       1.09385438E-10
  0.769999981       1.14133238E-10
  0.771250010       1.19641394E-10
  0.772499979       1.25935290E-10
  0.773750007       1.32878972E-10
  0.774999976       1.40716355E-10
  0.776250005       1.49183818E-10
  0.777499974       1.57249852E-10
  0.778750002       1.63755259E-10
  0.779999971       1.67297176E-10
  0.781250000       1.66807013E-10
  0.782500029       1.61334501E-10
  0.783749998       1.50303103E-10
  0.785000026       1.33737230E-10
  0.786249995       1.12083842E-10
  0.787500024       8.61392069E-11
  0.788749993       5.72968062E-11
  0.790000021       2.71999003E-11
  0.791249990      -2.27726323E-12
  0.792500019      -2.93280435E-11
  0.793749988      -5.25852521E-11
  0.795000017      -7.04488343E-11
  0.796249986      -8.15778903E-11
  0.797500014      -8.56606730E-11
  0.798749983      -8.32117569E-11
  0.800000012      -7.53241358E-11
  0.801249981      -6.37330883E-11
  0.802500010      -5.08199247E-11
  0.803749979      -3.93152663E-11
  0.805000007      -3.16980782E-11
  0.806249976      -3.00491888E-11
  0.807500005      -3.55817910E-11
  0.808749974      -4.87841642E-11
  0.810000002      -6.92769522E-11
  0.811249971      -9.56779447E-11
  0.812500000      -1.25913821E-10
  0.813750029      -1.57302796E-10
  0.814999998      -1.86637233E-10
  0.816250026      -2.10709505E-10
  0.817499995      -2.27055666E-10
  0.818750024      -2.33895375E-10
  0.819999993      -2.30169425E-10
  0.821250021      -2.15911608E-10
  0.822499990      -1.92568003E-10
  0.823750019      -1.62549973E-10
  0.824999988      -1.29110223E-10
  0.826250017      -9.60423130E-11
  0.827499986      -6.71060152E-11
  0.828750014      -4.58207083E-11
  0.829999983      -3.49207677E-11
  0.831250012      -3.60062535E-11
  0.832499981      -4.97532501E-11
  0.833750010      -7.55983540E-11
  0.834999979      -1.11586559E-10
  0.836250007      -1.54769406E-10
  0.837499976      -2.00910108E-10
  0.838750005      -2.45539006E-10
  0.839999974      -2.84697294E-10
  0.841250002      -3.14208271E-10
  0.842499971      -3.30828615E-10
  0.843750000      -3.32792072E-10
  0.845000029      -3.19679866E-10
  0.846249998      -2.93275126E-10
  0.847500026      -2.57279392E-10
  0.848749995      -2.15697543E-10
  0.850000024      -1.73289369E-10
  0.851249993      -1.35048486E-10
  0.852500021      -1.05441739E-10
  0.853749990      -8.85171589E-11
  0.855000019      -8.68983149E-11
  0.856249988      -1.01441584E-10
  0.857500017      -1.30937525E-10
  0.858749986      -1.72561618E-10
  0.860000014      -2.22103391E-10
  0.861249983      -2.75359846E-10
  0.862500012      -3.27846333E-10
  0.863749981      -3.74007686E-10
  0.865000010      -4.09629664E-10
  0.866249979      -4.31189168E-10
  0.867500007      -4.36090775E-10
  0.868749976      -4.23958868E-10
  0.870000005      -3.95236677E-10