 -0.200000003       0.00000000    
 -0.198750004       0.00000000    
 -0.197500005       0.00000000    
 -0.196250007       0.00000000    
 -0.194999993       0.00000000    
 -0.193749994       0.00000000    
 -0.192499995       0.00000000    
 -0.191249996       0.00000000    
 -0.189999998       0.00000000    
 -0.188749999       0.00000000    
 -0.187500000       0.00000000    
 -0.186250001       0.00000000    
 -0.185000002       0.00000000    
 -0.183750004       0.00000000    
 -0.182500005       0.00000000    
 -0.181250006       0.00000000    
 -0.180000007       0.00000000    
 -0.178749993       0.00000000    
 -0.177499995       0.00000000    
 -0.176249996       0.00000000    
 -0.174999997       0.00000000    
 -0.173749998       0.00000000    
 -0.172499999       0.00000000    
 -0.171250001       0.00000000    
 -0.170000002       0.00000000    
 -0.168750003       0.00000000    
 -0.167500004       0.00000000    
 -0.166250005       0.00000000    
 -0.165000007       0.00000000    
 -0.163749993       0.00000000    
 -0.162499994       0.00000000    
 -0.161249995       0.00000000    
 -0.159999996       0.00000000    
 -0.158749998       0.00000000    
 -0.157499999       0.00000000    
 -0.156250000       0.00000000    
 -0.155000001       0.00000000    
 -0.153750002       0.00000000    
 -0.152500004       0.00000000    
 -0.151250005       0.00000000    
 -0.150000006       0.00000000    
 -0.148750007       0.00000000    
 -0.147499993       0.00000000    
 -0.146249995       0.00000000    
 -0.144999996       0.00000000    
 -0.143749997       0.00000000    
 -0.142499998       0.00000000    
 -0.141249999       0.00000000    
 -0.140000001       0.00000000    
 -0.138750002       0.00000000    
 -0.137500003       0.00000000    
 -0.136250004       0.00000000    
 -0.135000005       0.00000000    
 -0.133750007       0.00000000    
 -0.132499993       0.00000000    
 -0.131249994       0.00000000    
 -0.129999995       0.00000000    
 -0.128749996       0.00000000    
 -0.127499998       0.00000000    
 -0.126249999       0.00000000    
 -0.125000000       0.00000000    
 -0.123750001       0.00000000    
 -0.122500002       0.00000000    
 -0.121250004       0.00000000    
 -0.119999997       0.00000000    
 -0.118749999       0.00000000    
 -0.117500000       0.00000000    
 -0.116250001       0.00000000    
 -0.115000002       0.00000000    
 -0.113750003       0.00000000    
 -0.112499997       0.00000000    
 -0.111249998       0.00000000    
 -0.109999999       0.00000000    
 -0.108750001       0.00000000    
 -0.107500002       0.00000000    
 -0.106250003       0.00000000    
 -0.104999997       0.00000000    
 -0.103749998       1.40129846E-45
 -0.102499999       2.80259693E-45
 -0.101250000       4.20389539E-45
 -0.100000001       5.60519386E-45
  -9.87500027E-02   4.20389539E-45
  -9.74999964E-02  -1.40129846E-45
  -9.62499976E-02  -1.54142831E-44
  -9.49999988E-02  -3.64337601E-44
  -9.37500000E-02  -6.58610278E-44
  -9.25000012E-02  -9.94921910E-44
  -9.12500024E-02  -1.24715563E-43
  -9.00000036E-02  -1.17709071E-43
  -8.87499973E-02  -4.34402524E-44
  -8.74999985E-02   1.44333742E-43
  -8.62499997E-02   4.90454463E-43
  -8.50000009E-02   1.02154658E-42
  -8.37500021E-02   1.71238672E-42
  -8.25000033E-02   2.44246322E-42
  -8.12499970E-02   2.94272678E-42
  -7.99999982E-02   2.75074889E-42
  -7.87499994E-02   1.20791928E-42
  -7.75000006E-02  -2.47329179E-42
  -7.62500018E-02  -9.02856601E-42
  -7.50000030E-02  -1.87914124E-41
  -7.37499967E-02  -3.11718843E-41
  -7.24999979E-02  -4.40021731E-41
  -7.12499991E-02  -5.28667872E-41
  -7.00000003E-02  -5.06695512E-41
  -6.87500015E-02  -2.77891498E-41
  -6.75000027E-02   2.66779202E-41
  -6.62499964E-02   1.22139977E-40
  -6.49999976E-02   2.61857841E-40
  -6.37499988E-02   4.36483452E-40
  -6.25000000E-02   6.16553107E-40
  -6.12500012E-02   7.45671551E-40
  -5.99999987E-02   7.37262358E-40
  -5.87499999E-02   4.78812475E-40
  -5.75000010E-02  -1.51911964E-40
  -5.62499985E-02  -1.25476609E-39
  -5.49999997E-02  -2.85752643E-39
  -5.37500009E-02  -4.85137235E-39
  -5.24999984E-02  -6.92100190E-39
  -5.12499996E-02  -8.48743639E-39
  -5.00000007E-02  -8.69044530E-39
  -4.87499982E-02  -6.44426756E-39
  -4.74999994E-02  -6.01253731E-40
  -4.62500006E-02   9.75079523E-39
  -4.50000018E-02   2.48544105E-38
  -4.37499993E-02   4.37464810E-38
  -4.25000004E-02   6.37085829E-38
  -4.12500016E-02   7.98528865E-38
  -3.99999991E-02   8.50498036E-38
  -3.87500003E-02   7.04373715E-38
  -3.75000015E-02   2.67391793E-38
  -3.62499990E-02  -5.34665653E-38
  -3.50000001E-02  -1.72558337E-37
  -3.37500013E-02  -3.24063408E-37
  -3.24999988E-02  -4.88875950E-37
  -3.12500000E-02  -6.32518191E-37
  -2.99999993E-02  -7.04776449E-37
  -2.87500005E-02  -6.43188238E-37
  -2.74999999E-02  -3.81699263E-37
  -2.62499992E-02   1.34772671E-37
  -2.50000004E-02   9.30212503E-37
  -2.37499997E-02   1.97374499E-36
  -2.25000009E-02   3.15609471E-36
  -2.12500002E-02   4.27213778E-36
  -1.99999996E-02   5.01703414E-36
  -1.87500007E-02   5.00409287E-36
  -1.75000001E-02   3.81158456E-36
  -1.62499994E-02   1.06260243E-36
  -1.49999997E-02  -3.46351404E-36
  -1.37499999E-02  -9.69770069E-36
  -1.25000002E-02  -1.71449108E-35
  -1.12500004E-02  -2.47745077E-35
  -9.99999978E-03  -3.09752060E-35
  -8.75000004E-03  -3.36166187E-35
  -7.49999983E-03  -3.02563407E-35
  -6.25000009E-03  -1.85185704E-35
  -4.99999989E-03   3.35457848E-36
  -3.74999992E-03   3.58143368E-35
  -2.49999994E-03   7.72606347E-35
  -1.24999997E-03   1.23373482E-34
   0.00000000       1.66698587E-34
   1.24999997E-03   1.96696113E-34
   2.49999994E-03   2.00462722E-34
   3.74999992E-03   1.64295149E-34
   4.99999989E-03   7.61682457E-35
   6.25000009E-03  -7.09567650E-35
   7.49999983E-03  -2.75288701E-34
   8.75000004E-03  -5.22372746E-34
   9.99999978E-03  -7.82065759E-34
   1.12500004E-02  -1.00732758E-33
   1.25000002E-02  -1.13592951E-33
   1.37499999E-02  -1.09609320E-33
   1.49999997E-02  -8.16728240E-34
   1.62499994E-02  -2.42292413E-34
   1.75000001E-02   6.48656976E-34
   1.87500007E-02   1.82335410E-33
   1.99999996E-02   3.17660818E-33
   2.12500002E-02   4.51912742E-33
   2.25000009E-02   5.57779122E-33
   2.37499997E-02   6.01325384E-33
   2.50000004E-02   5.45905197E-33
   2.62499992E-02   3.58377738E-33
   2.74999999E-02   1.73703546E-34
   2.87500005E-02  -4.77219188E-33
   2.99999993E-02  -1.09490385E-32
   3.12500000E-02  -1.76748095E-32
   3.24999988E-02  -2.38651963E-32
   3.37500013E-02  -2.80795890E-32
   3.50000001E-02  -2.86589255E-32
   3.62499990E-02  -2.39656526E-32
   3.75000015E-02  -1.27191663E-32
   3.87500003E-02   5.60267387E-33
   3.99999991E-02   3.03510290E-32
   4.12500016E-02   5.93622002E-32
   4.25000004E-02   8.87796693E-32
   4.37499993E-02   1.13143576E-31
   4.50000018E-02   1.25833873E-31
   4.62500006E-02   1.19914024E-31
   4.74999994E-02   8.93584474E-32
   4.87499982E-02   3.05623183E-32
   5.00000007E-02  -5.60622056E-32
   5.12499996E-02  -1.64688404E-31
   5.24999984E-02  -2.83223750E-31
   5.37500009E-02  -3.93366442E-31
   5.49999997E-02  -4.71877052E-31
   5.62499985E-02  -4.93236254E-31
   5.75000010E-02  -4.33644474E-31
   5.87499999E-02  -2.76039693E-31
   5.99999987E-02  -1.55047499E-32
   6.12500012E-02   3.35843297E-31
   6.25000000E-02   7.45575959E-31
   6.37499988E-02   1.16041097E-30
   6.49999976E-02   1.50934434E-30
   6.62499964E-02   1.71097510E-30
   6.75000027E-02   1.68489586E-30
   6.87500015E-02   1.36621671E-30
   7.00000003E-02   7.21441226E-31
   7.12499991E-02  -2.36827082E-31
   7.24999979E-02  -1.43932108E-30
   7.37499967E-02  -2.75666741E-30
   7.50000030E-02  -4.00548402E-30
   7.62500018E-02  -4.96528137E-30
   7.75000006E-02  -5.40577277E-30
   7.87499994E-02  -5.12222547E-30
   7.99999982E-02  -3.97453109E-30
   8.12499970E-02  -1.92411272E-30
   8.25000033E-02   9.37994181E-31
   8.37500021E-02   4.37824400E-30
   8.50000009E-02   8.02767549E-30
   8.62499997E-02   1.14111101E-29
   8.74999985E-02   1.39970465E-29
   8.87499973E-02   1.52631137E-29
   9.00000036E-02   1.47686522E-29
   9.12500024E-02   1.22240338E-29
   9.25000012E-02   7.54615539E-30
   9.37500000E-02   8.91478835E-31
   9.49999988E-02  -7.33805640E-30
   9.62499976E-02  -1.65158514E-29
   9.74999964E-02  -2.58325706E-29
   9.87500027E-02  -3.43497640E-29
  0.100000001      -4.10546213E-29
  0.101250000      -4.49078324E-29
  0.102499999      -4.48827321E-29
  0.103749998      -4.00028469E-29
  0.104999997      -2.93943704E-29
  0.106250003      -1.23768361E-29
  0.107500002       1.13840952E-29
  0.108750001       4.16464716E-29
  0.109999999       7.72887964E-29
  0.111249998       1.15967585E-28
  0.112499997       1.53805391E-28
  0.113750003       1.85213625E-28
  0.115000002       2.02978524E-28
  0.116250001       1.98740081E-28
  0.117500000       1.63964082E-28
  0.118749999       9.14386158E-29
  0.119999997      -2.27784655E-29
  0.121250004      -1.77168884E-28
  0.122500002      -3.62669220E-28
  0.123750001      -5.61163889E-28
  0.125000000      -7.45095640E-28
  0.126249999      -8.78714011E-28
  0.127499998      -9.21346974E-28
  0.128749996      -8.32822760E-28
  0.129999995      -5.80787093E-28
  0.131249994      -1.49211591E-28
  0.132499993       4.53083397E-28
  0.133750007       1.18545832E-27
  0.135000005       1.97182216E-27
  0.136250004       2.70207201E-27
  0.137500003       3.23994611E-27
  0.138750002       3.43787508E-27
  0.140000001       3.15832847E-27
  0.141249999       2.29985387E-27
  0.142499998       8.24654602E-28
  0.143749997      -1.21659512E-27
  0.144999996      -3.66769862E-27
  0.146249995      -6.26265964E-27
  0.147499993      -8.63832351E-27
  0.148750007      -1.03662833E-26
  0.150000006      -1.10037522E-26
  0.151250005      -1.01598652E-26
  0.152500004      -7.57045236E-27
  0.153750002      -3.17128574E-27
  0.155000001       2.84229916E-27
  0.156250000       9.98206178E-27
  0.157499999       1.74710797E-26
  0.158749998       2.42933367E-26
  0.159999996       2.92909816E-26
  0.161249995       3.13046261E-26
  0.162499994       2.93444054E-26
  0.163749993       2.27723390E-26
  0.165000007       1.14710506E-26
  0.166250005      -4.02893682E-27
  0.167500004      -2.24899961E-26
  0.168750003      -4.19978422E-26
  0.170000002      -6.00938707E-26
  0.171250001      -7.40090381E-26
  0.172499999      -8.09843373E-26
  0.173749998      -7.86483414E-26
  0.174999997      -6.54094866E-26
  0.176249996      -4.08124400E-26
  0.177499995      -5.80500014E-27
  0.178749993       3.71336272E-26
  0.180000007       8.40411486E-26
  0.181250006       1.29717329E-25
  0.182500005       1.68163957E-25
  0.183750004       1.93193108E-25
  0.185000002       1.99153630E-25
  0.186250001       1.81705679E-25
  0.187500000       1.38559523E-25
  0.188749999       7.00892869E-26
  0.189999998      -2.02639015E-26
  0.191249996      -1.25872088E-25
  0.192499995      -2.37135779E-25
  0.193749994      -3.42058495E-25
  0.194999993      -4.27173258E-25
  0.196250007      -4.78779208E-25
  0.197500005      -4.84412858E-25
  0.198750004      -4.34446803E-25
  0.200000003      -3.23679046E-25
  0.201250002      -1.52754631E-25
  0.202500001       7.07552211E-26
  0.203749999       3.31794379E-25
  0.204999998       6.07952371E-25
  0.206249997       8.70424192E-25
  0.207499996       1.08588834E-24
  0.208749995       1.21931617E-24
  0.209999993       1.23762474E-24
  0.211250007       1.11396202E-24
  0.212500006       8.32279809E-25
  0.213750005       3.91716007E-25
  0.215000004      -1.89800365E-25
  0.216250002      -8.73372166E-25
  0.217500001      -1.59902746E-24
  0.218750000      -2.28822595E-24
  0.219999999      -2.84931668E-24
  0.221249998      -3.18597135E-24
  0.222499996      -3.20822591E-24
  0.223749995      -2.84529842E-24
  0.224999994      -2.05891237E-24
  0.226249993      -8.55457726E-25
  0.227500007       7.04909539E-25
  0.228750005       2.50416203E-24
  0.230000004       4.36897636E-24
  0.231250003       6.08113426E-24
  0.232500002       7.39607034E-24
  0.233750001       8.06883221E-24
  0.234999999       7.88553171E-24
  0.236249998       6.69722161E-24
  0.237499997       4.45214162E-24
  0.238749996       1.22171125E-24
  0.239999995      -2.78444470E-24
  0.241249993      -7.21856559E-24
  0.242500007      -1.16127961E-23
  0.243750006      -1.54161833E-23
  0.245000005      -1.80492637E-23
  0.246250004      -1.89722720E-23
  0.247500002      -1.77604775E-23
  0.248750001      -1.41781229E-23
  0.250000000      -8.24113916E-24
  0.251249999      -2.58679940E-25
  0.252499998       9.15536505E-24
  0.253749996       1.91072366E-23
  0.254999995       2.84872251E-23
  0.256249994       3.60707248E-23
  0.257499993       4.06495165E-23
  0.258749992       4.11814801E-23
  0.259999990       3.69430188E-23
  0.261249989       2.76657432E-23
  0.262499988       1.36385073E-23
  0.263749987      -4.24261149E-24
  0.264999986      -2.44896804E-23
  0.266250014      -4.51108626E-23
  0.267500013      -6.37703922E-23
  0.268750012      -7.80113637E-23
  0.270000011      -8.55236167E-23
  0.271250010      -8.44314167E-23
  0.272500008      -7.35703292E-23
  0.273750007      -5.27200665E-23
  0.275000006      -2.27612861E-23
  0.276250005       1.42711485E-23
  0.277500004       5.52574282E-23
  0.278750002       9.61923230E-23
  0.280000001       1.32509321E-22
  0.281250000       1.59509354E-22
  0.282499999       1.72860465E-22
  0.283749998       1.69123309E-22
  0.284999996       1.46248892E-22
  0.286249995       1.03991671E-22
  0.287499994       4.41831621E-23
  0.288749993      -2.91812239E-23
  0.289999992      -1.10075442E-22
  0.291249990      -1.90811153E-22
  0.292499989      -2.62633303E-22
  0.293749988      -3.16510736E-22
  0.294999987      -3.44064700E-22
  0.296249986      -3.38556760E-22
  0.297500014      -2.95839525E-22
  0.298750013      -2.15165056E-22
  0.300000012      -9.97451569E-23
  0.301250011       4.30309298E-23
  0.302500010       2.01793573E-22
  0.303750008       3.61843227E-22
  0.305000007       5.06250085E-22
  0.306250006       6.17350276E-22
  0.307500005       6.78535186E-22
  0.308750004       6.76183548E-22
  0.310000002       6.01547915E-22
  0.311250001       4.52384441E-22
  0.312500000       2.34111854E-22
  0.313749999      -3.96946446E-23
  0.314999998      -3.47623561E-22
  0.316249996      -6.61641749E-22
  0.317499995      -9.49196821E-22
  0.318749994      -1.17610119E-21
  0.319999993      -1.30998873E-21
  0.321249992      -1.32404414E-21
  0.322499990      -1.20063216E-21
  0.323749989      -9.34415209E-22
  0.324999988      -5.34548911E-22
  0.326249987      -2.55956681E-23
  0.327499986       5.53110695E-22
  0.328750014       1.14977610E-21
  0.330000013       1.70409223E-21
  0.331250012       2.15259073E-21
  0.332500011       2.43499657E-21
  0.333750010       2.50101108E-21
  0.335000008       2.31684788E-21
  0.336250007       1.87078326E-21
  0.337500006       1.17701753E-21
  0.338750005       2.77238059E-22
  0.340000004      -7.60538451E-22
  0.341250002      -1.84602398E-21
  0.342500001      -2.87350731E-21
  0.343750000      -3.73107045E-21
  0.344999999      -4.31146367E-21
  0.346249998      -4.52367831E-21
  0.347499996      -4.30408447E-21
  0.348749995      -3.62594218E-21
  0.349999994      -2.50612885E-21
  0.351249993      -1.00811648E-21
  0.352499992       7.59491702E-22
  0.353749990       2.64916143E-21
  0.354999989       4.48521198E-21
  0.356249988       6.07855127E-21
  0.357499987       7.24426847E-21
  0.358749986       7.82060010E-21
  0.360000014       7.68750642E-21
  0.361250013       6.78295453E-21
  0.362500012       5.11505348E-21
  0.363750011       2.76843114E-21
  0.365000010      -9.63708896E-23
  0.366250008      -3.25110900E-21
  0.367500007      -6.41560152E-21
  0.368750006      -9.28023300E-21
  0.370000005      -1.15336321E-20
  0.371250004      -1.28932965E-20
  0.372500002      -1.31364093E-20
  0.373750001      -1.21277974E-20
  0.375000000      -9.84197264E-21
  0.376249999      -6.37645625E-21
  0.377499998      -1.95419885E-21
  0.378749996       3.08623833E-21
  0.379999995       8.31295594E-21
  0.381249994       1.32344415E-20
  0.382499993       1.73424862E-20
  0.383749992       2.01608698E-20
  0.384999990       2.12954660E-20
  0.386249989       2.04808853E-20
  0.387499988       1.76185997E-20
  0.388749987       1.28019189E-20
  0.389999986       6.32409871E-21
  0.391250014      -1.33279931E-21
  0.392500013      -9.52888478E-21
  0.393750012      -1.75158968E-20
  0.395000011      -2.45017651E-20
  0.396250010      -2.97250520E-20
  0.397500008      -3.25326387E-20
  0.398750007      -3.24530613E-20
  0.400000006      -2.92578209E-20
  0.401250005      -2.30034970E-20
  0.402500004      -1.40489648E-20
  0.403750002      -3.04404707E-21
  0.405000001       9.11145180E-21
  0.406250000       2.13364664E-20
  0.407499999       3.24603735E-20
  0.408749998       4.13302926E-20
  0.409999996       4.69244957E-20
  0.411249995       4.84612131E-20
  0.412499994       4.54918996E-20
  0.413749993       3.79687501E-20
  0.414999992       2.62781839E-20
  0.416249990       1.12347235E-20
  0.417499989      -5.96673366E-21
  0.418749988      -2.38384955E-20
  0.419999987      -4.07217558E-20
  0.421249986      -5.49330386E-20
  0.422500014      -6.49231574E-20
  0.423750013      -6.94344453E-20
  0.425000012      -6.76413569E-20
  0.426250011      -5.92599364E-20
  0.427500010      -4.46138765E-20
  0.428750008      -2.46478174E-20
  0.430000007      -8.82936342E-22
  0.431250006       2.46851843E-20
  0.432500005       4.97410489E-20
  0.433750004       7.18455605E-20
  0.435000002       8.86588918E-20
  0.436250001       9.81710682E-20
  0.437500000       9.89190656E-20
  0.438749999       9.01689617E-20
  0.439999998       7.20429982E-20
  0.441249996       4.55749828E-20
  0.442499995       1.26828122E-20
  0.443749994      -2.39462131E-20
  0.444999993      -6.10535677E-20
  0.446249992      -9.50790994E-20
  0.447499990      -1.22482016E-19
  0.448749989      -1.40086216E-19
  0.449999988      -1.45418429E-19
  0.451249987      -1.37005046E-19
  0.452499986      -1.14595043E-19
  0.453750014      -7.92806928E-20
  0.455000013      -3.34954963E-20
  0.456250012       1.91203703E-20
  0.457500011       7.39843846E-20
  0.458750010       1.25949557E-19
  0.460000008       1.69766749E-19
  0.461250007       2.00591260E-19
  0.462500006       2.14486110E-19
  0.463750005       2.08870898E-19
  0.465000004       1.82867429E-19
  0.466250002       1.37500101E-19
  0.467500001       7.57216836E-20
  0.468750000       2.25065222E-21
  0.469999999      -7.67746393E-20
  0.471249998      -1.54301005E-19
  0.472499996      -2.22982897E-19
  0.473749995      -2.75866363E-19
  0.474999994      -3.07069735E-19
  0.476249993      -3.12393702E-19
  0.477499992      -2.89797816E-19
  0.478749990      -2.39691738E-19
  0.479999989      -1.65006428E-19
  0.481249988      -7.10313304E-20
  0.482499987       3.49734516E-20
  0.483749986       1.44358656E-19
  0.485000014       2.47810335E-19
  0.486250013       3.36151984E-19
  0.487500012       4.01151371E-19
  0.488750011       4.36258054E-19
  0.490000010       4.37204865E-19
  0.491250008       4.02419077E-19
  0.492500007       3.33207479E-19
  0.493750006       2.33701012E-19
  0.495000005       1.10565769E-19
  0.496250004      -2.74922039E-20
  0.497500002      -1.70383567E-19
  0.498750001      -3.07397609E-19
  0.500000000      -4.28006332E-19
  0.501250029      -5.22647556E-19
  0.502499998      -5.83428219E-19
  0.503750026      -6.04699220E-19
  0.504999995      -5.83464615E-19
  0.506250024      -5.19603325E-19
  0.507499993      -4.15895219E-19
  0.508750021      -2.77857929E-19
  0.509999990      -1.13411722E-19
  0.511250019       6.75998945E-20
  0.512499988       2.54000024E-19
  0.513750017       4.33940397E-19
  0.514999986       5.95596304E-19
  0.516250014       7.27855143E-19
  0.517499983       8.20963265E-19
  0.518750012       8.67099315E-19
  0.519999981       8.60847846E-19
  0.521250010       7.99554538E-19
  0.522499979       6.83550108E-19
  0.523750007       5.16237889E-19
  0.524999976       3.04046209E-19
  0.526250005       5.62509829E-20
  0.527499974      -2.15321498E-19
  0.528750002      -4.96701227E-19
  0.529999971      -7.72280429E-19
  0.531250000      -1.02541155E-18
  0.532500029      -1.23909154E-18
  0.533749998      -1.39673138E-18
  0.535000026      -1.48300766E-18
  0.536249995      -1.48479106E-18
  0.537500024      -1.39213660E-18
  0.538749993      -1.19930787E-18
  0.540000021      -9.05786552E-19
  0.541249990      -5.17197521E-19
  0.542500019      -4.60532127E-20
  0.543749988       4.87796162E-19
  0.545000017       1.05713310E-18
  0.546249986       1.62789083E-18
  0.547500014       2.16032403E-18
  0.548749983       2.61090461E-18
  0.550000012       2.93494848E-18
  0.551249981       3.08991043E-18
  0.552500010       3.03918813E-18
  0.553749979       2.75618917E-18
  0.555000007       2.22832200E-18
  0.556249976       1.46051269E-18
  0.557500005       4.77806715E-19
  0.558749974      -6.73370824E-19
  0.560000002      -1.92567295E-18
  0.561249971      -3.19326934E-18
  0.562500000      -4.37637605E-18
  0.563750029      -5.36778965E-18
  0.564999998      -6.06112210E-18
  0.566250026      -6.36021241E-18
  0.567499995      -6.18899926E-18
  0.568750024      -5.50097813E-18
  0.569999993      -4.28729200E-18
  0.571250021      -2.58250750E-18
  0.572499990      -4.67224697E-19
  0.573750019       1.93312812E-18
  0.574999988       4.45368393E-18
  0.576250017       6.89971739E-18
  0.577499986       9.06003563E-18
  0.578750014       1.07233941E-17
  0.579999983       1.16967772E-17
  0.581250012       1.18241101E-17
  0.582499981       1.10037438E-17
  0.583750010       9.20303779E-18
  0.584999979       6.46843410E-18
  0.586250007       2.92967852E-18
  0.587499976      -1.20275721E-18
  0.588750005      -5.64748919E-18
  0.589999974      -1.00691025E-17
  0.591250002      -1.41012986E-17
  0.592499971      -1.73748808E-17
  0.593750000      -1.95486221E-17
  0.595000029      -2.03405979E-17
  0.596249998      -1.95573737E-17
  0.597500026      -1.71183423E-17
  0.598749995      -1.30727136E-17
  0.600000024      -7.60708213E-18
  0.601249993      -1.04208793E-18
  0.602500021       6.18247528E-18
  0.603749990       1.35338552E-17
  0.605000019       2.04226029E-17
  0.606249988       2.62466940E-17
  0.607500017       3.04404848E-17
  0.608749986       3.25247781E-17
  0.610000014       3.21538802E-17
  0.611249983       2.91554465E-17
  0.612500012       2.35591511E-17
  0.613749981       1.56108354E-17
  0.615000010       5.76974276E-18
  0.616249979      -5.31232264E-18
  0.617500007      -1.68296397E-17
  0.618749976      -2.78771976E-17
  0.620000005      -3.75179844E-17
  0.621249974      -4.48582892E-17
  0.622500002      -4.91252607E-17
  0.623749971      -4.97403555E-17
  0.625000000      -4.63821544E-17
  0.626250029      -3.90324032E-17
  0.627499998      -2.80000836E-17
  0.628750026      -1.39198516E-17
  0.629999995       2.27697924E-18
  0.631250024       1.94184305E-17
  0.632499993       3.61720920E-17
  0.633750021       5.11445310E-17
  0.634999990       6.29928212E-17
  0.636250019       7.05395936E-17
  0.637499988       7.28821426E-17
  0.638750017       6.94859309E-17
  0.639999986       6.02535034E-17
  0.641250014       4.55613894E-17
  0.642499983       2.62597336E-17
  0.643750012       3.63222493E-18
  0.644999981      -2.06828191E-17
  0.646250010      -4.48060577E-17
  0.647499979      -6.67580216E-17
  0.648750007      -8.46171554E-17
  0.649999976      -9.66826964E-17
  0.651250005      -1.01629045E-16
  0.652499974      -9.86380323E-17
  0.653750002      -8.74967234E-17
  0.654999971      -6.86503528E-17
  0.656250000      -4.32034283E-17
  0.657500029      -1.28658002E-17
  0.658749998       2.01549438E-17
  0.660000026       5.33087431E-17
  0.661249995       8.38956620E-17
  0.662500024       1.09281716E-16
  0.663749993       1.27121024E-16
  0.665000021       1.35565942E-16
  0.666249990       1.33446891E-16
  0.667500019       1.20404820E-16
  0.668749988       9.69629849E-17
  0.670000017       6.45283662E-17
  0.671249986       2.53191830E-17
  0.672500014      -1.77793589E-17
  0.673749983      -6.14225214E-17
  0.675000012      -1.02062302E-16
  0.676249981      -1.36233351E-16
  0.677500010      -1.60845667E-16
  0.678749979      -1.73459616E-16
  0.680000007      -1.72519078E-16
  0.681249976      -1.57520970E-16
  0.682500005      -1.29103756E-16
  0.683749974      -8.90436901E-17
  0.685000002      -4.01550395E-17
  0.686249971       1.39014766E-17
  0.687500000       6.88897455E-17
  0.688750029       1.20329024E-16
  0.689999998       1.63858841E-16
  0.691250026       1.95608204E-16
  0.692499995       2.12538010E-16
  0.693750024       2.12726435E-16
  0.694999993       1.95570723E-16
  0.696250021       1.61885347E-16
  0.697499990       1.13884149E-16
  0.698750019       5.50441052E-17
  0.699999988      -1.01419449E-17
  0.701250017      -7.65063848E-17
  0.702499986      -1.38615883E-16
  0.703750014      -1.91216007E-16
  0.704999983      -2.29674863E-16
  0.706250012      -2.50388498E-16
  0.707499981      -2.51112235E-16
  0.708750010      -2.31188537E-16
  0.709999979      -1.91648748E-16
  0.711250007      -1.35176956E-16
  0.712499976      -6.59351225E-17
  0.713750005       1.07394579E-17
  0.714999974       8.87424375E-17
  0.716250002       1.61685117E-16
  0.717499971       2.23413145E-16
  0.718750000       2.68519159E-16
  0.720000029       2.92806531E-16
  0.721249998       2.93665052E-16
  0.722500026       2.70325218E-16
  0.723749995       2.23967767E-16
  0.725000024       1.57676440E-16
  0.726249993       7.62345270E-17
  0.727500021      -1.42214814E-17
  0.728749990      -1.06665172E-16
  0.730000019      -1.93725249E-16
  0.731249988      -2.68269284E-16
  0.732500017      -3.23979541E-16
  0.733749986      -3.55874064E-16
  0.735000014      -3.60729971E-16
  0.736249983      -3.37373355E-16
  0.737500012      -2.86810623E-16
  0.738749981      -2.12188305E-16
  0.740000010      -1.18582720E-16
  0.741249979      -1.26340705E-17
  0.742500007       9.79471578E-17
  0.743749976       2.04963352E-16
  0.745000005       3.00356665E-16
  0.746249974       3.76829976E-16
  0.747500002       4.28412377E-16
  0.748749971       4.50923972E-16
  0.750000000       4.42302447E-16
  0.751250029       4.02765463E-16
  0.752499998       3.34795649E-16
  0.753750026       2.42949510E-16
  0.754999995       1.33505945E-16
  0.756250024       1.39830697E-17
  0.757499993      -1.07437540E-16
  0.758750021      -2.22532311E-16
  0.759999990      -3.23652798E-16
  0.761250019      -4.04288746E-16
  0.762499988      -4.59532315E-16
  0.763750017      -4.86407294E-16
  0.764999986      -4.84038195E-16
  0.766250014      -4.53648083E-16
  0.767499983      -3.98388156E-16
  0.768750012      -3.23016703E-16
  0.769999981      -2.33456812E-16
  0.771250010      -1.36273083E-16
  0.772499979      -3.81135842E-17
  0.773750007       5.48337234E-17
  0.774999976       1.37323020E-16
  0.776250005       2.05429471E-16
  0.777499974       2.56793099E-16
  0.778750002       2.90707875E-16
  0.779999971       3.08051113E-16
  0.781250000       3.11061706E-16
  0.782500029       3.02991361E-16
  0.783749998       2.87663744E-16
  0.785000026       2.68986218E-16
  0.786249995       2.50463275E-16
  0.787500024       2.34761799E-16
  0.788749993       2.23373653E-16
  0.790000021       2.16412498E-16
  0.791249990       2.12569721E-16
  0.792500019       2.09238658E-16
  0.793749988       2.02800202E-16
  0.795000017       1.89045935E-16
  0.796249986       1.63700446E-16
  0.797500014       1.22992374E-16
  0.798749983       6.42163669E-17
  0.800000012      -1.37736689E-17
  0.801249981      -1.10196631E-16
  0.802500010      -2.22148393E-16
  0.803749979      -3.44610828E-16
  0.805000007      -4.70679903E-16
  0.806249976      -5.92006415E-16
  0.807500005      -6.99421786E-16
  0.808749974      -7.83701141E-16
  0.810000002      -8.36399613E-16
  0.811249971      -8.50686994E-16
  0.812500000      -8.22101274E-16
  0.813750029      -7.49143308E-16
  0.814999998      -6.33646872E-16
  0.816250026      -4.80873574E-16
  0.817499995      -2.99306345E-16
  0.818750024      -1.00139961E-16
  0.819999993       1.03503495E-16
  0.821250021       2.97581574E-16
  0.822499990       4.68284282E-16
  0.823750019       6.03240295E-16
  0.824999988       6.92675486E-16
  0.826250017       7.30421710E-16
  0.827499986       7.14685849E-16
  0.828750014       6.48504518E-16
  0.829999983       5.39837814E-16
  0.831250012       4.01284717E-16
  0.832499981       2.49436168E-16
  0.833750010       1.03914306E-16
  0.834999979      -1.38252883E-17
  0.836250007      -8.18294774E-17
  0.837499976      -7.90086194E-17
  0.838750005       1.35930003E-17
  0.839999974       2.11726870E-16
  0.841250002       5.27162390E-16
  0.842499971       9.67269274E-16
  0.843750000       1.53499618E-15
  0.845000029       2.22924905E-15
  0.846249998       3.04563677E-15
  0.847500026       3.97752400E-15
  0.848749995       5.01730352E-15
  0.850000024       6.15778977E-15
  0.851249993       7.39362524E-15
  0.852500021       8.72259875E-15
  0.853749990       1.01467898E-14
  0.855000019       1.16734676E-14
  0.856249988       1.33157222E-14
  0.857500017       1.50928074E-14
  0.858749986       1.70302208E-14
  0.860000014       1.91595820E-14
  0.861249983       2.15183604E-14
  0.862500012       2.41495361E-14
  0.863749981       2.71012901E-14
  0.865000010       3.04267618E-14
  0.866249979       3.41839695E-14
  0.867500007       3.84358920E-14
  0.868749976       4.32507423E-14
  0.870000005       4.87023989E-14