 -0.200000003       0.00000000    
 -0.198750004       0.00000000    
 -0.197500005       0.00000000    
 -0.196250007       0.00000000    
 -0.194999993       0.00000000    
 -0.193749994       0.00000000    
 -0.192499995       0.00000000    
 -0.191249996       0.00000000    
 -0.189999998       2.35007931E-32
 -0.188749999       4.16733953E-31
 -0.187500000       3.81307610E-30
 -0.186250001       2.39346900E-29
 -0.185000002       1.15568038E-28
 -0.183750004       4.56157085E-28
 -0.182500005       1.52661707E-27
 -0.181250006       4.43321109E-27
 -0.180000007       1.13315385E-26
 -0.178749993       2.56812389E-26
 -0.177499995       5.16119704E-26
 -0.176249996       9.10541159E-26
 -0.174999997       1.36750665E-25
 -0.173749998       1.59445072E-25
 -0.172499999       8.94159415E-26
 -0.171250001      -2.02834221E-25
 -0.170000002      -9.14073740E-25
 -0.168750003      -2.28149835E-24
 -0.167500004      -4.49121509E-24
 -0.166250005      -7.49342839E-24
 -0.165000007      -1.07169168E-23
 -0.163749993      -1.27252675E-23
 -0.162499994      -1.09381189E-23
 -0.161249995      -1.63986512E-24
 -0.159999996       1.94185054E-23
 -0.158749998       5.55094472E-23
 -0.157499999       1.06333199E-22
 -0.156250000       1.64507980E-22
 -0.155000001       2.11897430E-22
 -0.153750002       2.17266758E-22
 -0.152500004       1.37460073E-22
 -0.151250005      -7.53805694E-23
 -0.150000006      -4.58505901E-22
 -0.148750007      -1.01478380E-21
 -0.147499993      -1.68315614E-21
 -0.146249995      -2.31028152E-21
 -0.144999996      -2.63492083E-21
 -0.143749997      -2.30007041E-21
 -0.142499998      -9.08097496E-22
 -0.141249999       1.87095451E-21
 -0.140000001       6.13967297E-21
 -0.138750002       1.15827896E-20
 -0.137500003       1.72897970E-20
 -0.136250004       2.16570812E-20
 -0.135000005       2.24497917E-20
 -0.133750007       1.70993258E-20
 -0.132499993       3.28143700E-21
 -0.131249994      -2.02420224E-20
 -0.129999995      -5.26245520E-20
 -0.128749996      -8.99909240E-20
 -0.127499998      -1.24853453E-19
 -0.126249999      -1.46246179E-19
 -0.125000000      -1.40907581E-19
 -0.123750001      -9.57069747E-20
 -0.122500002      -1.25538289E-21
 -0.121250004       1.43714179E-19
 -0.119999997       3.28014620E-19
 -0.118749999       5.24897074E-19
 -0.117500000       6.91541397E-19
 -0.116250001       7.72435111E-19
 -0.115000002       7.07472895E-19
 -0.113750003       4.44745392E-19
 -0.112499997      -4.32171562E-20
 -0.111249998      -7.42347502E-19
 -0.109999999      -1.58293242E-18
 -0.108750001      -2.43309532E-18
 -0.107500002      -3.10438382E-18
 -0.106250003      -3.37275678E-18
 -0.104999997      -3.01581201E-18
 -0.103749998      -1.86357919E-18
 -0.102499999       1.43900359E-19
 -0.101250000       2.90289647E-18
 -0.100000001       6.10964741E-18
  -9.87500027E-02   9.25533628E-18
  -9.74999964E-02   1.16639431E-17
  -9.62499976E-02   1.25787180E-17
  -9.49999988E-02   1.12941653E-17
  -9.37500000E-02   7.31956821E-18
  -9.25000012E-02   5.49055814E-19
  -9.12500024E-02  -8.59557454E-18
  -9.00000036E-02  -1.90871314E-17
  -8.87499973E-02  -2.93153702E-17
  -8.74999985E-02  -3.72333548E-17
  -8.62499997E-02  -4.06327429E-17
  -8.50000009E-02  -3.75279403E-17
  -8.37500021E-02  -2.66016851E-17
  -8.25000033E-02  -7.64013792E-18
  -8.12499970E-02   1.81305136E-17
  -7.99999982E-02   4.78961497E-17
  -7.87499994E-02   7.73705504E-17
  -7.75000006E-02   1.01216453E-16
  -7.62500018E-02   1.13764108E-16
  -7.50000030E-02   1.09960884E-16
  -7.37499967E-02   8.64270200E-17
  -7.24999979E-02   4.24454463E-17
  -7.12499991E-02  -1.93102485E-17
  -7.00000003E-02  -9.24976588E-17
  -6.87500015E-02  -1.67420191E-16
  -6.75000027E-02  -2.31997321E-16
  -6.62499964E-02  -2.73346320E-16
  -6.49999976E-02  -2.79812967E-16
  -6.37499988E-02  -2.43178606E-16
  -6.25000000E-02  -1.60690951E-16
  -6.12500012E-02  -3.65361673E-17
  -5.99999987E-02   1.17597502E-16
  -5.87499999E-02   2.83113272E-16
  -5.75000010E-02   4.36344841E-16
  -5.62499985E-02   5.51529251E-16
  -5.49999997E-02   6.04590836E-16
  -5.37500009E-02   5.77228707E-16
  -5.24999984E-02   4.60676338E-16
  -5.12499996E-02   2.58470304E-16
  -5.00000007E-02  -1.23585780E-17
  -4.87499982E-02  -3.22072526E-16
  -4.74999994E-02  -6.31115620E-16
  -4.62500006E-02  -8.94897509E-16
  -4.50000018E-02  -1.06993062E-15
  -4.37499993E-02  -1.12049785E-15
  -4.25000004E-02  -1.02485354E-15
  -4.12500016E-02  -7.79930044E-16
  -3.99999991E-02  -4.03663557E-16
  -3.87500003E-02   6.56519025E-17
  -3.75000015E-02   5.73149608E-16
  -3.62499990E-02   1.05399401E-15
  -3.50000001E-02   1.44200551E-15
  -3.37500013E-02   1.67912085E-15
  -3.24999988E-02   1.72428020E-15
  -3.12500000E-02   1.56032109E-15
  -2.99999993E-02   1.19767886E-15
  -2.87500005E-02   6.74128165E-16
  -2.74999999E-02   5.03872239E-17
  -2.62499992E-02  -5.97934216E-16
  -2.50000004E-02  -1.19094039E-15
  -2.37499997E-02  -1.65602639E-15
  -2.25000009E-02  -1.93859838E-15
  -2.12500002E-02  -2.01015424E-15
  -1.99999996E-02  -1.87228671E-15
  -1.87500007E-02  -1.55579062E-15
  -1.75000001E-02  -1.11484475E-15
  -1.62499994E-02  -6.17092619E-16
  -1.49999997E-02  -1.31216084E-16
  -1.37499999E-02   2.85856600E-16
  -1.25000002E-02   5.99753696E-16
  -1.12500004E-02   8.05299528E-16
  -9.99999978E-03   9.27398586E-16
  -8.75000004E-03   1.01548800E-15
  -7.49999983E-03   1.13200818E-15
  -6.25000009E-03   1.33650205E-15
  -4.99999989E-03   1.66795367E-15
  -3.74999992E-03   2.12863551E-15
  -2.49999994E-03   2.67289865E-15
  -1.24999997E-03   3.20392245E-15
   0.00000000       3.58045867E-15
   1.24999997E-03   3.63414192E-15
   2.49999994E-03   3.19617549E-15
   3.74999992E-03   2.13039776E-15
   4.99999989E-03   3.68163373E-16
   6.25000009E-03  -2.06058743E-15
   7.49999983E-03  -5.00600961E-15
   8.75000004E-03  -8.19214437E-15
   9.99999978E-03  -1.12296909E-14
   1.12500004E-02  -1.36493261E-14
   1.25000002E-02  -1.49542532E-14
   1.37499999E-02  -1.46875699E-14
   1.49999997E-02  -1.25071174E-14
   1.62499994E-02  -8.25822819E-15
   1.75000001E-02  -2.03354484E-15
   1.87500007E-02   5.79075599E-15
   1.99999996E-02   1.45513704E-14
   2.12500002E-02   2.33327880E-14
   2.25000009E-02   3.10422227E-14
   2.37499997E-02   3.65208623E-14
   2.50000004E-02   3.86822905E-14
   2.62499992E-02   3.66640278E-14
   2.74999999E-02   2.99743547E-14
   2.87500005E-02   1.86146739E-14
   2.99999993E-02   3.15808018E-15
   3.12500000E-02  -1.52322358E-14
   3.24999988E-02  -3.48556565E-14
   3.37500013E-02  -5.36012241E-14
   3.50000001E-02  -6.91435502E-14
   3.62499990E-02  -7.91925187E-14
   3.75000015E-02  -8.17732112E-14
   3.87500003E-02  -7.55056418E-14
   3.99999991E-02  -5.98500606E-14
   4.12500016E-02  -3.52836792E-14
   4.25000004E-02  -3.37883730E-15
   4.37499993E-02   3.32389789E-14
   4.50000018E-02   7.10628455E-14
   4.62500006E-02   1.06000874E-13
   4.74999994E-02   1.33776914E-13
   4.87499982E-02   1.50400132E-13
   5.00000007E-02   1.52656113E-13
   5.12499996E-02   1.38564236E-13
   5.24999984E-02   1.07744210E-13
   5.37500009E-02   6.16393059E-14
   5.49999997E-02   3.55522132E-15
   5.62499985E-02  -6.15091677E-14
   5.75000010E-02  -1.27241072E-13
   5.87499999E-02  -1.86580745E-13
   5.99999987E-02  -2.32430015E-13
   6.12500012E-02  -2.58435526E-13
   6.25000000E-02  -2.59764866E-13
   6.37499988E-02  -2.33787599E-13
   6.49999976E-02  -1.80575295E-13
   6.62499964E-02  -1.03148264E-13
   6.75000027E-02  -7.41882108E-15
   6.87500015E-02   9.81891434E-14
   7.00000003E-02   2.03429721E-13
   7.12499991E-02   2.97183420E-13
   7.24999979E-02   3.68581169E-13
   7.37499967E-02   4.08194230E-13
   7.50000030E-02   4.09164727E-13
   7.62500018E-02   3.68148302E-13
   7.75000006E-02   2.85951465E-13
   7.87499994E-02   1.67771206E-13
   7.99999982E-02   2.29811016E-14
   8.12499970E-02  -1.35545831E-13
   8.25000033E-02  -2.92537614E-13
   8.37500021E-02  -4.31758307E-13
   8.50000009E-02  -5.37646154E-13
   8.62499997E-02  -5.96992724E-13
   8.74999985E-02  -6.00486241E-13
   8.87499973E-02  -5.43944880E-13
   9.00000036E-02  -4.29088541E-13
   9.12500024E-02  -2.63738386E-13
   9.25000012E-02  -6.13871408E-14
   9.37500000E-02   1.59851936E-13
   9.49999988E-02   3.78842547E-13
   9.62499976E-02   5.73432144E-13
   9.74999964E-02   7.22678753E-13
   9.87500027E-02   8.09075246E-13
  0.100000001       8.20535914E-13
  0.101250000       7.51923805E-13
  0.102499999       6.05934736E-13
  0.103749998       3.93212237E-13
  0.104999997       1.31643828E-13
  0.106250003      -1.55126143E-13
  0.107500002      -4.39847350E-13
  0.108750001      -6.94282685E-13
  0.109999999      -8.92041324E-13
  0.111249998      -1.01133837E-12
  0.112499997      -1.03738958E-12
  0.113750003      -9.64175463E-13
  0.115000002      -7.95367515E-13
  0.116250001      -5.44289765E-13
  0.117500000      -2.32885407E-13
  0.118749999       1.10235239E-13
  0.119999997       4.52490936E-13
  0.121250004       7.60509982E-13
  0.122500002       1.00347671E-12
  0.123750001       1.15629836E-12
  0.125000000       1.20225856E-12
  0.126249999       1.13486759E-12
  0.127499998       9.58700025E-13
  0.128749996       6.89114293E-13
  0.129999995       3.50862975E-13
  0.131249994      -2.42763234E-14
  0.132499993      -4.00615305E-13
  0.133750007      -7.42096488E-13
  0.135000005      -1.01589635E-12
  0.136250004      -1.19571291E-12
  0.137500003      -1.26439365E-12
  0.138750002      -1.21562721E-12
  0.140000001      -1.05452322E-12
  0.141249999      -7.97022875E-13
  0.142499998      -4.68209835E-13
  0.143749997      -9.97083140E-14
  0.144999996       2.73547786E-13
  0.146249995       6.16824842E-13
  0.147499993       8.99004829E-13
  0.148750007       1.09554726E-12
  0.150000006       1.19069641E-12
  0.151250005       1.17872194E-12
  0.152500004       1.06409304E-12
  0.153750002       8.60606833E-13
  0.155000001       5.89608332E-13
  0.156250000       2.77534235E-13
  0.157499999      -4.69183239E-14
  0.158749998      -3.55670734E-13
  0.159999996      -6.23871343E-13
  0.161249995      -8.31965139E-13
  0.162499994      -9.67036672E-13
  0.163749993      -1.02333669E-12
  0.165000007      -1.00201076E-12
  0.166250005      -9.10143705E-13
  0.167500004      -7.59315245E-13
  0.168750003      -5.63906615E-13
  0.170000002      -3.39411550E-13
  0.171250001      -1.00978911E-13
  0.172499999       1.37642529E-13
  0.173749998       3.64668392E-13
  0.174999997       5.70353498E-13
  0.176249996       7.46667431E-13
  0.177499995       8.86731660E-13
  0.178749993       9.84221493E-13
  0.180000007       1.03294239E-12
  0.181250006       1.02675865E-12
  0.182500005       9.59984696E-13
  0.183750004       8.28259011E-13
  0.185000002       6.29814885E-13
  0.186250001       3.66964922E-13
  0.187500000       4.75361395E-14
  0.188749999      -3.14049893E-13
  0.189999998      -6.96352101E-13
  0.191249996      -1.07138885E-12
  0.192499995      -1.40616609E-12
  0.193749994      -1.66526059E-12
  0.194999993      -1.81430532E-12
  0.196250007      -1.82406434E-12
  0.197500005      -1.67464729E-12
  0.198750004      -1.35932812E-12
  0.200000003      -8.87400288E-13
  0.201250002      -2.85556545E-13
  0.202500001       4.02600262E-13
  0.203749999       1.11911381E-12
  0.204999998       1.79625499E-12
  0.206249997       2.36282348E-12
  0.207499996       2.75161231E-12
  0.208749995       2.90727143E-12
  0.209999993       2.79367046E-12
  0.211250007       2.39982990E-12
  0.212500006       1.74356959E-12
  0.213750005       8.72214085E-13
  0.215000004      -1.40008271E-13
  0.216250002      -1.19787600E-12
  0.217500001      -2.19400062E-12
  0.218750000      -3.01978971E-12
  0.219999999      -3.57745019E-12
  0.221249998      -3.79171694E-12
  0.222499996      -3.61992207E-12
  0.223749995      -3.05910353E-12
  0.224999994      -2.14910034E-12
  0.226249993      -9.70976012E-13
  0.227500007       3.59387894E-13
  0.228750005       1.70213344E-12
  0.230000004       2.90775693E-12
  0.231250003       3.83351120E-12
  0.232500002       4.36012034E-12
  0.233750001       4.40689022E-12
  0.234999999       3.94336170E-12
  0.236249998       2.99593141E-12
  0.237499997       1.64834422E-12
  0.238749996       3.56123923E-14
  0.239999995      -1.66836000E-12
  0.241249993      -3.26840963E-12
  0.242500007      -4.56930197E-12
  0.243750006      -5.39825216E-12
  0.245000005      -5.62627028E-12
  0.246250004      -5.18580101E-12
  0.247500002      -4.08241062E-12
  0.248750001      -2.39881921E-12
  0.250000000      -2.90352784E-13
  0.251249999       2.02817212E-12
  0.252499998       4.30315028E-12
  0.253749996       6.26856553E-12
  0.254999995       7.67538377E-12
  0.256249994       8.32080758E-12
  0.257499993       8.07407353E-12
  0.258749992       6.89570059E-12
  0.259999990       4.84764182E-12
  0.261249989       2.09270405E-12
  0.262499988      -1.11729874E-12
  0.263749987      -4.46394831E-12
  0.264999986      -7.59325849E-12
  0.266250014      -1.01523659E-11
  0.267500013      -1.18281149E-11
  0.268750012      -1.23833730E-11
  0.270000011      -1.16869760E-11
  0.271250010      -9.73370082E-12
  0.272500008      -6.65158944E-12
  0.273750007      -2.69522360E-12
  0.275000006       1.77497914E-12
  0.276250005       6.32584523E-12
  0.277500004       1.04938749E-11
  0.278750002       1.38328585E-11
  0.280000001       1.59617701E-11
  0.281250000       1.66077881E-11
  0.282499999       1.56396372E-11
  0.283749998       1.30873038E-11
  0.284999996       9.14545696E-12
  0.286249995       4.15960322E-12
  0.287499994      -1.40417972E-12
  0.288749993      -7.00331459E-12
  0.289999992      -1.20724212E-11
  0.291249990      -1.60812440E-11
  0.292499989      -1.85908424E-11
  0.293749988      -1.93020652E-11
  0.294999987      -1.80908916E-11
  0.296249986      -1.50265616E-11
  0.297500014      -1.03700590E-11
  0.298750013      -4.55251939E-12
  0.300000012       1.86468766E-12
  0.301250011       8.24454480E-12
  0.302500010       1.39383401E-11
  0.303750008       1.83524047E-11
  0.305000007       2.10108302E-11
  0.306250006       2.16075404E-11
  0.307500005       2.00418571E-11
  0.308750004       1.64336253E-11
  0.310000002       1.11157576E-11
  0.311250001       4.60448953E-12
  0.312500000      -2.44986496E-12
  0.313749999      -9.32725598E-12
  0.314999998      -1.53107336E-11
  0.316249996      -1.97603722E-11
  0.317499995      -2.21808561E-11
  0.318749994      -2.22753101E-11
  0.319999993      -1.99796655E-11
  0.321249992      -1.54739398E-11
  0.322499990      -9.16841689E-12
  0.323749989      -1.66575098E-12
  0.324999988       6.29694560E-12
  0.326249987       1.39209850E-11
  0.327499986       2.04267540E-11
  0.328750014       2.51335480E-11
  0.330000013       2.75308942E-11
  0.331250012       2.73334758E-11
  0.332500011       2.45138059E-11
  0.333750010       1.93095019E-11
  0.335000008       1.22038794E-11
  0.336250007       3.88136962E-12
  0.337500006      -4.83844128E-12
  0.338750005      -1.30807110E-11
  0.340000004      -2.00025829E-11
  0.341250002      -2.48789687E-11
  0.342500001      -2.71762526E-11
  0.343750000      -2.66090656E-11
  0.344999999      -2.31726981E-11
  0.346249998      -1.71472368E-11
  0.347499996      -9.07510265E-12
  0.348749995       2.89333634E-13
  0.349999994       1.00516722E-11
  0.351249993       1.92633461E-11
  0.352499992       2.70154871E-11
  0.353749990       3.25284556E-11
  0.354999989       3.52313144E-11
  0.356249988       3.48213819E-11
  0.357499987       3.12988316E-11
  0.358749986       2.49716567E-11
  0.360000014       1.64286137E-11
  0.361250013       6.48886240E-12
  0.362500012      -3.87490734E-12
  0.363750011      -1.36302037E-11
  0.365000010      -2.17837953E-11
  0.366250008      -2.74810747E-11
  0.367500007      -3.00917347E-11
  0.368750006      -2.92744509E-11
  0.370000005      -2.50168965E-11
  0.371250004      -1.76443183E-11
  0.372500002      -7.79664874E-12
  0.373750001       3.62467218E-12
  0.375000000       1.55401438E-11
  0.376249999       2.67884534E-11
  0.377499998       3.62366942E-11
  0.378749996       4.28918741E-11
  0.379999995       4.59995028E-11
  0.381249994       4.51222393E-11
  0.382499993       4.01901290E-11
  0.383749992       3.15163277E-11
  0.384999990       1.97804394E-11
  0.386249989       5.98297323E-12
  0.387499988      -8.64950125E-12
  0.388749987      -2.27756182E-11
  0.389999986      -3.50450918E-11
  0.391250014      -4.42285340E-11
  0.392500013      -4.93510267E-11
  0.393750012      -4.97796804E-11
  0.395000011      -4.52945355E-11
  0.396250010      -3.61223620E-11
  0.397500008      -2.29284404E-11
  0.398750007      -6.76961785E-12
  0.400000006       1.09859786E-11
  0.401250005       2.87749095E-11
  0.402500004       4.49975855E-11
  0.403750002       5.81295324E-11
  0.405000001       6.68725839E-11
  0.406250000       7.03097996E-11
  0.407499999       6.79791917E-11
  0.408749998       5.99324132E-11
  0.409999996       4.67497568E-11
  0.411249995       2.94852580E-11
  0.412499994       9.58310254E-12
  0.413749993      -1.12420932E-11
  0.414999992      -3.11555191E-11
  0.416249990      -4.83505319E-11
  0.417499989      -6.12345799E-11
  0.418749988      -6.85907234E-11
  0.419999987      -6.96902952E-11
  0.421249986      -6.43736661E-11
  0.422500014      -5.30727719E-11
  0.423750013      -3.67463351E-11
  0.425000012      -1.68610820E-11
  0.426250011       4.76414394E-12
  0.427500010       2.61527414E-11
  0.428750008       4.53121499E-11
  0.430000007       6.04770400E-11
  0.431250006       7.02304603E-11
  0.432500005       7.36399830E-11
  0.433750004       7.03741371E-11
  0.435000002       6.07465467E-11
  0.436250001       4.56840087E-11
  0.437500000       2.65959667E-11
  0.438749999       5.29563502E-12
  0.439999998      -1.61849839E-11
  0.441249996      -3.58026213E-11
  0.442499995      -5.16736411E-11
  0.443749994      -6.22975144E-11
  0.444999993      -6.66901673E-11
  0.446249992      -6.44403142E-11
  0.447499990      -5.58446830E-11
  0.448749989      -4.18817168E-11
  0.449999988      -2.40331591E-11
  0.451249987      -4.11691905E-12
  0.452499986       1.58706850E-11
  0.453750014       3.38507035E-11
  0.455000013       4.79714220E-11
  0.456250012       5.68374826E-11
  0.457500011       5.96732733E-11
  0.458750010       5.62872318E-11
  0.460000008       4.71037861E-11
  0.461250007       3.32572546E-11
  0.462500006       1.63307978E-11
  0.463750005      -1.78819253E-12
  0.465000004      -1.91109090E-11
  0.466250002      -3.37574690E-11
  0.467500001      -4.41597384E-11
  0.468750000      -4.92604013E-11
  0.469999999      -4.85092001E-11
  0.471249998      -4.19493294E-11
  0.472499996      -3.03056989E-11
  0.473749995      -1.48515974E-11
  0.474999994       2.76033211E-12
  0.476249993       2.06915214E-11
  0.477499992       3.71804011E-11
  0.478749990       5.06100127E-11
  0.479999989       5.96526092E-11
  0.481249988       6.35626135E-11
  0.482499987       6.21484739E-11
  0.483749986       5.59566907E-11
  0.485000014       4.60971643E-11
  0.486250013       3.38976451E-11
  0.487500012       2.08642929E-11
  0.488750011       8.55772658E-12
  0.490000010      -1.57598771E-12
  0.491250008      -8.46450948E-12
  0.492500007      -1.15087549E-11
  0.493750006      -1.06185807E-11
  0.495000005      -6.28790162E-12
  0.496250004       5.29255947E-13
  0.497500002       8.55584874E-12
  0.498750001       1.63983965E-11
  0.500000000       2.27685891E-11
  0.501250029       2.65321116E-11
  0.502499998       2.69189809E-11
  0.503750026       2.38428079E-11
  0.504999995       1.77806086E-11
  0.506250024       9.50987553E-12
  0.507499993       2.96383740E-13
  0.508750021      -8.13961398E-12
  0.509999990      -1.41567418E-11
  0.511250019      -1.65004919E-11
  0.512499988      -1.40628420E-11
  0.513750017      -6.40058275E-12
  0.514999986       6.04683361E-12
  0.516250014       2.21976760E-11
  0.517499983       4.03016440E-11
  0.518750012       5.80675716E-11
  0.519999981       7.28812705E-11
  0.521250010       8.24027513E-11
  0.522499979       8.45211401E-11
  0.523750007       7.77490572E-11
  0.524999976       6.16057275E-11
  0.526250005       3.65644112E-11
  0.527499974       4.39418944E-12
  0.528750002      -3.21743188E-11
  0.529999971      -6.98546082E-11
  0.531250000      -1.04849351E-10
  0.532500029      -1.33218492E-10
  0.533749998      -1.51442650E-10
  0.535000026      -1.56900132E-10
  0.536249995      -1.48062243E-10
  0.537500024      -1.24703622E-10
  0.538749993      -8.81989690E-11
  0.540000021      -4.15418221E-11
  0.541249990       1.10197771E-11
  0.542500019       6.45128673E-11
  0.543749988       1.13573866E-10
  0.545000017       1.52929336E-10
  0.546249986       1.78045773E-10
  0.547500014       1.85779406E-10
  0.548749983       1.74661619E-10
  0.550000012       1.45214493E-10
  0.551249981       9.99357888E-11
  0.552500010       4.30735551E-11
  0.553749979      -1.98320960E-11
  0.555000007      -8.23245846E-11
  0.556249976      -1.37714451E-10
  0.557500005      -1.80067211E-10
  0.558749974      -2.04590192E-10
  0.560000002      -2.08192200E-10
  0.561249971      -1.90099506E-10
  0.562500000      -1.51870849E-10
  0.563750029      -9.72209119E-11
  0.564999998      -3.20992156E-11
  0.566250026       3.62338701E-11
  0.567499995       1.00089791E-10
  0.568750024       1.51990337E-10
  0.569999993       1.85490193E-10
  0.571250021       1.95781669E-10
  0.572499990       1.80445880E-10
  0.573750019       1.39760772E-10
  0.574999988       7.68814179E-11
  0.576250017      -2.38165260E-12
  0.577499986      -9.01971553E-11
  0.578750014      -1.77464279E-10
  0.579999983      -2.54828686E-10
  0.581250012      -3.13623405E-10
  0.582499981      -3.46747658E-10
  0.583750010      -3.49421936E-10
  0.584999979      -3.19942906E-10
  0.586250007      -2.60083372E-10
  0.587499976      -1.74947778E-10
  0.588750005      -7.24443977E-11
  0.589999974       3.75653640E-11
  0.591250002       1.44202233E-10
  0.592499971       2.36444198E-10
  0.593750000       3.04478665E-10
  0.595000029       3.40763584E-10
  0.596249998       3.40812406E-10
  0.597500026       3.03672976E-10
  0.598749995       2.32346350E-10
  0.600000024       1.33593345E-10
  0.601249993       1.71495335E-11
  0.602500021      -1.05285114E-10
  0.603749990      -2.21180546E-10
  0.605000019      -3.18414239E-10
  0.606249988      -3.86394250E-10
  0.607500017      -4.17324980E-10
  0.608749986      -4.07365919E-10
  0.610000014      -3.56376206E-10
  0.611249983      -2.68417955E-10
  0.612500012      -1.51508403E-10
  0.613749981      -1.67070975E-11
  0.615000010       1.23012711E-10
  0.616249979       2.54140653E-10
  0.617500007       3.63709091E-10
  0.618749976       4.40910114E-10
  0.620000005       4.78162232E-10
  0.621249974       4.71991113E-10
  0.622500002       4.23332008E-10
  0.623749971       3.37171041E-10
  0.625000000       2.22417432E-10
  0.626250029       9.08049677E-11
  0.627499998      -4.44320379E-11
  0.628750026      -1.69959755E-10
  0.629999995      -2.73434081E-10
  0.631250024      -3.44636764E-10
  0.632499993      -3.76818243E-10
  0.633750021      -3.67255448E-10
  0.634999990      -3.17623539E-10
  0.636250019      -2.33680464E-10
  0.637499988      -1.24620966E-10
  0.638750017      -2.13749374E-12
  0.639999986       1.20928156E-10
  0.641250014       2.31918248E-10
  0.642499983       3.19452048E-10
  0.643750012       3.74838161E-10
  0.644999981       3.92972183E-10
  0.646250010       3.72824938E-10
  0.647499979       3.17416260E-10
  0.648750007       2.33390557E-10
  0.649999976       1.30547254E-10
  0.651250005       2.01543764E-11
  0.652499974      -8.62120583E-11
  0.653750002      -1.77321574E-10
  0.654999971      -2.43863041E-10
  0.656250000      -2.79195833E-10
  0.657500029      -2.80187429E-10
  0.658749998      -2.47615317E-10
  0.660000026      -1.85693738E-10
  0.661249995      -1.01690573E-10
  0.662500024      -4.99961400E-12
  0.663749993       9.38435371E-11
  0.665000021       1.84066651E-10
  0.666249990       2.56219601E-10
  0.667500019       3.03357534E-10
  0.668749988       3.21010774E-10
  0.670000017       3.08007453E-10
  0.671249986       2.66552364E-10
  0.672500014       2.01656025E-10
  0.673749983       1.20698992E-10
  0.675000012       3.21135063E-11
  0.676249981      -5.53151309E-11
  0.677500010      -1.33117115E-10
  0.678749979      -1.94242428E-10
  0.680000007      -2.34191361E-10
  0.681249976      -2.50958199E-10
  0.682500005      -2.45294146E-10
  0.683749974      -2.20403085E-10
  0.685000002      -1.81321805E-10
  0.686249971      -1.34657133E-10
  0.687500000      -8.69144895E-11
  0.688750029      -4.38743729E-11
  0.689999998      -1.03031585E-11
  0.691250026       1.05915242E-11
  0.692499995       1.77354555E-11
  0.693750024       1.24732863E-11
  0.694999993      -2.28407592E-12
  0.696250021      -2.22923398E-11
  0.697499990      -4.25672796E-11
  0.698750019      -5.82373524E-11
  0.699999988      -6.50808019E-11
  0.701250017      -6.06186629E-11
  0.702499986      -4.40396365E-11
  0.703750014      -1.62263848E-11
  0.704999983       1.96134584E-11
  0.706250012       5.88938065E-11
  0.707499981       9.66454625E-11
  0.708750010       1.27377137E-10
  0.709999979       1.46018211E-10
  0.711250007       1.48850238E-10
  0.712499976       1.34288192E-10
  0.713750005       1.03109556E-10
  0.714999974       5.81613854E-11
  0.716250002       4.75092968E-12
  0.717499971      -5.02821222E-11
  0.718750000      -9.94332602E-11
  0.720000029      -1.34995168E-10
  0.721249998      -1.50665244E-10
  0.722500026      -1.42439588E-10
  0.723749995      -1.08785744E-10
  0.725000024      -5.09281714E-11
  0.726249993       2.64606514E-11
  0.727500021       1.15658365E-10
  0.728749990       2.06854284E-10
  0.730000019       2.89208574E-10
  0.731249988       3.52256974E-10
  0.732500017       3.86586901E-10
  0.733749986       3.85662918E-10
  0.735000014       3.46382589E-10
  0.736249983       2.69271716E-10
  0.737500012       1.59348340E-10
  0.738749981       2.57170257E-11
  0.740000010      -1.19302512E-10
  0.741249979      -2.61760447E-10
  0.742500007      -3.87128551E-10
  0.743749976      -4.81479523E-10
  0.745000005      -5.33612932E-10
  0.746249974      -5.36422406E-10
  0.747500002      -4.87857199E-10
  0.748749971      -3.91094879E-10
  0.750000000      -2.54338550E-10
  0.751250029      -9.01859143E-11
  0.752499998       8.53549523E-11
  0.753750026       2.54033600E-10
  0.754999995       3.98174244E-10
  0.756250024       5.02114295E-10
  0.757499993       5.53564083E-10
  0.758750021       5.45233247E-10
  0.759999990       4.75780859E-10
  0.761250019       3.50007134E-10
  0.762499988       1.78368778E-10
  0.763750017      -2.36857600E-11
  0.764999986      -2.37346365E-10
  0.766250014      -4.42334336E-10
  0.767499983      -6.18671447E-10
  0.768750012      -7.49301732E-10
  0.769999981      -8.21826551E-10
  0.771250010      -8.28861535E-10
  0.772499979      -7.69495911E-10
  0.773750007      -6.49527099E-10
  0.774999976      -4.80825935E-10
  0.776250005      -2.80551748E-10
  0.777499974      -6.90339452E-11
  0.778750002       1.32255304E-10
  0.779999971       3.02963599E-10
  0.781250000       4.25973173E-10
  0.782500029       4.88881380E-10
  0.783749998       4.85373242E-10
  0.785000026       4.15662643E-10
  0.786249995       2.86831503E-10
  0.787500024       1.12049349E-10
  0.788749993      -9.13780093E-11
  0.790000021      -3.03367192E-10
  0.791249990      -5.02863862E-10
  0.792500019      -6.70118960E-10
  0.793749988      -7.88591026E-10
  0.795000017      -8.46730297E-10
  0.796249986      -8.38944081E-10
  0.797500014      -7.66115060E-10
  0.798749983      -6.35338337E-10
  0.800000012      -4.58888538E-10
  0.801249981      -2.53021659E-10
  0.802500010      -3.67731609E-11
  0.803749979       1.70220532E-10
  0.805000007       3.50185991E-10
  0.806249976       4.88384611E-10
  0.807500005       5.74442327E-10
  0.808749974       6.03280981E-10
  0.810000002       5.75621717E-10
  0.811249971       4.97526742E-10
  0.812500000       3.79633103E-10
  0.813750029       2.36273723E-10
  0.814999998       8.35844102E-11
  0.816250026      -6.21487653E-11
  0.817499995      -1.85811630E-10
  0.818750024      -2.75084455E-10
  0.819999993      -3.21568827E-10
  0.821250021      -3.21223270E-10
  0.822499990      -2.74588657E-10
  0.823750019      -1.86637941E-10
  0.824999988      -6.60700314E-11
  0.826250017       7.59972779E-11
  0.827499986       2.27003888E-10
  0.828750014       3.73969022E-10
  0.829999983       5.05038733E-10
  0.831250012       6.10612672E-10
  0.832499981       6.84050150E-10
  0.833750010       7.21610216E-10
  0.834999979       7.22992444E-10
  0.836250007       6.91186552E-10
  0.837499976       6.31706354E-10
  0.838750005       5.51928725E-10
  0.839999974       4.59936561E-10
  0.841250002       3.64308556E-10
  0.842499971       2.72782102E-10
  0.843750000       1.91937743E-10
  0.845000029       1.26553129E-10
  0.846249998       7.93776503E-11
  0.847500026       5.15080617E-11
  0.848749995       4.25988064E-11
  0.850000024       5.15230844E-11
  0.851249993       7.55615431E-11
  0.852500021       1.11303730E-10
  0.853749990       1.55534488E-10
  0.855000019       2.04587972E-10
  0.856249988       2.55294091E-10
  0.857500017       3.04272441E-10
  0.858749986       3.48022444E-10
  0.860000014       3.83884841E-10
  0.861249983       4.09801304E-10
  0.862500012       4.23653446E-10
  0.863749981       4.22812091E-10
  0.865000010       4.05294076E-10
  0.866249979       3.69972580E-10
  0.867500007       3.16036280E-10
  0.868749976       2.44191334E-10
  0.870000005       1.56526070E-10