 -0.200000003       0.00000000    
 -0.198750004       0.00000000    
 -0.197500005       0.00000000    
 -0.196250007       0.00000000    
 -0.194999993       0.00000000    
 -0.193749994       0.00000000    
 -0.192499995       0.00000000    
 -0.191249996       0.00000000    
 -0.189999998       0.00000000    
 -0.188749999       0.00000000    
 -0.187500000       0.00000000    
 -0.186250001       0.00000000    
 -0.185000002       0.00000000    
 -0.183750004       0.00000000    
 -0.182500005       0.00000000    
 -0.181250006       0.00000000    
 -0.180000007       0.00000000    
 -0.178749993       0.00000000    
 -0.177499995       0.00000000    
 -0.176249996       0.00000000    
 -0.174999997       0.00000000    
 -0.173749998       0.00000000    
 -0.172499999       0.00000000    
 -0.171250001       0.00000000    
 -0.170000002       0.00000000    
 -0.168750003       0.00000000    
 -0.167500004       0.00000000    
 -0.166250005       0.00000000    
 -0.165000007       0.00000000    
 -0.163749993       0.00000000    
 -0.162499994       0.00000000    
 -0.161249995       0.00000000    
 -0.159999996       0.00000000    
 -0.158749998       0.00000000    
 -0.157499999       0.00000000    
 -0.156250000       0.00000000    
 -0.155000001       0.00000000    
 -0.153750002       0.00000000    
 -0.152500004       0.00000000    
 -0.151250005       0.00000000    
 -0.150000006       0.00000000    
 -0.148750007       0.00000000    
 -0.147499993       0.00000000    
 -0.146249995       0.00000000    
 -0.144999996       0.00000000    
 -0.143749997       0.00000000    
 -0.142499998       0.00000000    
 -0.141249999       0.00000000    
 -0.140000001       0.00000000    
 -0.138750002       0.00000000    
 -0.137500003       0.00000000    
 -0.136250004       0.00000000    
 -0.135000005       0.00000000    
 -0.133750007       0.00000000    
 -0.132499993       0.00000000    
 -0.131249994       0.00000000    
 -0.129999995       0.00000000    
 -0.128749996       0.00000000    
 -0.127499998       0.00000000    
 -0.126249999       0.00000000    
 -0.125000000       0.00000000    
 -0.123750001       0.00000000    
 -0.122500002       0.00000000    
 -0.121250004       0.00000000    
 -0.119999997       0.00000000    
 -0.118749999       0.00000000    
 -0.117500000       0.00000000    
 -0.116250001       0.00000000    
 -0.115000002       0.00000000    
 -0.113750003       0.00000000    
 -0.112499997       0.00000000    
 -0.111249998       0.00000000    
 -0.109999999       0.00000000    
 -0.108750001       0.00000000    
 -0.107500002       0.00000000    
 -0.106250003       0.00000000    
 -0.104999997       0.00000000    
 -0.103749998       0.00000000    
 -0.102499999       0.00000000    
 -0.101250000       0.00000000    
 -0.100000001       0.00000000    
  -9.87500027E-02   0.00000000    
  -9.74999964E-02   0.00000000    
  -9.62499976E-02   0.00000000    
  -9.49999988E-02   0.00000000    
  -9.37500000E-02   0.00000000    
  -9.25000012E-02   0.00000000    
  -9.12500024E-02   0.00000000    
  -9.00000036E-02   0.00000000    
  -8.87499973E-02   0.00000000    
  -8.74999985E-02   0.00000000    
  -8.62499997E-02   0.00000000    
  -8.50000009E-02   0.00000000    
  -8.37500021E-02   0.00000000    
  -8.25000033E-02   0.00000000    
  -8.12499970E-02   0.00000000    
  -7.99999982E-02   0.00000000    
  -7.87499994E-02   0.00000000    
  -7.75000006E-02   0.00000000    
  -7.62500018E-02   0.00000000    
  -7.50000030E-02   0.00000000    
  -7.37499967E-02   0.00000000    
  -7.24999979E-02   0.00000000    
  -7.12499991E-02   0.00000000    
  -7.00000003E-02   0.00000000    
  -6.87500015E-02   0.00000000    
  -6.75000027E-02   0.00000000    
  -6.62499964E-02   0.00000000    
  -6.49999976E-02   0.00000000    
  -6.37499988E-02   0.00000000    
  -6.25000000E-02   0.00000000    
  -6.12500012E-02   0.00000000    
  -5.99999987E-02   0.00000000    
  -5.87499999E-02   0.00000000    
  -5.75000010E-02   0.00000000    
  -5.62499985E-02   0.00000000    
  -5.49999997E-02   0.00000000    
  -5.37500009E-02   0.00000000    
  -5.24999984E-02   0.00000000    
  -5.12499996E-02   0.00000000    
  -5.00000007E-02   0.00000000    
  -4.87499982E-02   0.00000000    
  -4.74999994E-02   0.00000000    
  -4.62500006E-02   0.00000000    
  -4.50000018E-02   0.00000000    
  -4.37499993E-02   0.00000000    
  -4.25000004E-02   0.00000000    
  -4.12500016E-02   0.00000000    
  -3.99999991E-02   0.00000000    
  -3.87500003E-02   0.00000000    
  -3.75000015E-02   0.00000000    
  -3.62499990E-02   0.00000000    
  -3.50000001E-02   0.00000000    
  -3.37500013E-02   0.00000000    
  -3.24999988E-02   0.00000000    
  -3.12500000E-02   0.00000000    
  -2.99999993E-02   0.00000000    
  -2.87500005E-02   0.00000000    
  -2.74999999E-02   0.00000000    
  -2.62499992E-02   0.00000000    
  -2.50000004E-02   0.00000000    
  -2.37499997E-02   0.00000000    
  -2.25000009E-02   0.00000000    
  -2.12500002E-02   0.00000000    
  -1.99999996E-02   0.00000000    
  -1.87500007E-02   0.00000000    
  -1.75000001E-02   0.00000000    
  -1.62499994E-02   0.00000000    
  -1.49999997E-02   0.00000000    
  -1.37499999E-02   0.00000000    
  -1.25000002E-02   0.00000000    
  -1.12500004E-02   0.00000000    
  -9.99999978E-03   0.00000000    
  -8.75000004E-03   0.00000000    
  -7.49999983E-03   0.00000000    
  -6.25000009E-03   0.00000000    
  -4.99999989E-03   0.00000000    
  -3.74999992E-03   0.00000000    
  -2.49999994E-03   0.00000000    
  -1.24999997E-03   0.00000000    
   0.00000000       0.00000000    
   1.24999997E-03   0.00000000    
   2.49999994E-03   0.00000000    
   3.74999992E-03   0.00000000    
   4.99999989E-03   0.00000000    
   6.25000009E-03   0.00000000    
   7.49999983E-03   0.00000000    
   8.75000004E-03   0.00000000    
   9.99999978E-03   0.00000000    
   1.12500004E-02   0.00000000    
   1.25000002E-02   0.00000000    
   1.37499999E-02   0.00000000    
   1.49999997E-02   0.00000000    
   1.62499994E-02   0.00000000    
   1.75000001E-02   0.00000000    
   1.87500007E-02   0.00000000    
   1.99999996E-02   0.00000000    
   2.12500002E-02   0.00000000    
   2.25000009E-02   0.00000000    
   2.37499997E-02   0.00000000    
   2.50000004E-02   0.00000000    
   2.62499992E-02   0.00000000    
   2.74999999E-02   0.00000000    
   2.87500005E-02   0.00000000    
   2.99999993E-02   0.00000000    
   3.12500000E-02   0.00000000    
   3.24999988E-02   0.00000000    
   3.37500013E-02   0.00000000    
   3.50000001E-02   0.00000000    
   3.62499990E-02   0.00000000    
   3.75000015E-02   0.00000000    
   3.87500003E-02   0.00000000    
   3.99999991E-02   0.00000000    
   4.12500016E-02  -1.12103877E-41
   4.25000004E-02  -3.36311631E-41
   4.37499993E-02  -3.36311631E-41
   4.50000018E-02  -3.36311631E-41
   4.62500006E-02  -3.36311631E-41
   4.74999994E-02  -1.12103877E-41
   4.87499982E-02   2.24207754E-41
   5.00000007E-02   1.34524653E-40
   5.12499996E-02   1.70169482E-40
   5.24999984E-02   2.03800645E-40
   5.37500009E-02   2.37431808E-40
   5.49999997E-02   1.79366203E-40
   5.62499985E-02   6.72623263E-41
   5.75000010E-02   5.80656045E-41
   5.87499999E-02  -4.76004273E-40
   5.99999987E-02  -1.60223766E-39
   6.12500012E-02  -2.04145644E-39
   6.25000000E-02  -2.10355078E-39
   6.37499988E-02  -6.94196253E-40
   6.49999976E-02  -7.65487312E-40
   6.62499964E-02   1.01784015E-39
   6.75000027E-02   2.92591119E-39
   6.87500015E-02   4.21250777E-39
   7.00000003E-02   6.30225296E-39
   7.12499991E-02   7.95479163E-39
   7.24999979E-02   7.29857337E-39
   7.37499967E-02   4.67706484E-39
   7.50000030E-02  -7.31218558E-40
   7.62500018E-02  -5.76092016E-39
   7.75000006E-02  -1.46973480E-38
   7.87499994E-02  -2.33052050E-38
   7.99999982E-02  -3.11525296E-38
   8.12499970E-02  -3.29922271E-38
   8.25000033E-02  -2.93917617E-38
   8.37500021E-02  -1.70158622E-38
   8.50000009E-02   7.25746628E-39
   8.62499997E-02   3.87471245E-38
   8.74999985E-02   7.74230181E-38
   8.87499973E-02   1.14625239E-37
   9.00000036E-02   1.43212826E-37
   9.12500024E-02   1.49269306E-37
   9.25000012E-02   1.21658715E-37
   9.37500000E-02   5.22276269E-38
   9.49999988E-02  -5.97674030E-38
   9.62499976E-02  -2.09399863E-37
   9.74999964E-02  -3.76729563E-37
   9.87500027E-02  -5.29940856E-37
  0.100000001      -6.25794379E-37
  0.101250000      -6.15659471E-37
  0.102499999      -4.59033091E-37
  0.103749998      -1.26278448E-37
  0.104999997       3.80329981E-37
  0.106250003       1.01575915E-36
  0.107500002       1.68555193E-36
  0.108750001       2.24968823E-36
  0.109999999       2.53178732E-36
  0.111249998       2.35055481E-36
  0.112499997       1.55833214E-36
  0.113750003       8.52115135E-38
  0.115000002      -2.00701903E-36
  0.116250001      -4.48798563E-36
  0.117500000      -6.95276999E-36
  0.118749999      -8.83145232E-36
  0.119999997      -9.46958347E-36
  0.121250004      -8.23574129E-36
  0.122500002      -4.68220587E-36
  0.123750001       1.28687987E-36
  0.125000000       9.25458652E-36
  0.126249999       1.82017394E-35
  0.127499998       2.64988196E-35
  0.128749996       3.20565029E-35
  0.129999995       3.26293613E-35
  0.131249994       2.62598263E-35
  0.132499993       1.18288158E-35
  0.133750007      -1.03894193E-35
  0.135000005      -3.82953445E-35
  0.136250004      -6.77782983E-35
  0.137500003      -9.29299227E-35
  0.138750002      -1.06747055E-34
  0.140000001      -1.02309736E-34
  0.141249999      -7.43608830E-35
  0.142499998      -2.10446808E-35
  0.143749997       5.45205415E-35
  0.144999996       1.43289490E-34
  0.146249995       2.30322552E-34
  0.147499993       2.96198518E-34
  0.148750007       3.19894096E-34
  0.150000006       2.82966263E-34
  0.151250005       1.74526438E-34
  0.152500004      -3.92248776E-36
  0.153750002      -2.34916072E-34
  0.155000001      -4.83983304E-34
  0.156250000      -7.02191652E-34
  0.157499999      -8.32837013E-34
  0.158749998      -8.22030822E-34
  0.159999996      -6.31954120E-34
  0.161249995      -2.54473060E-34
  0.162499994       2.78018442E-34
  0.163749993       8.88023809E-34
  0.165000007       1.45774992E-33
  0.166250005       1.84515052E-33
  0.167500004       1.91093743E-33
  0.168750003       1.55343911E-33
  0.170000002       7.45267321E-34
  0.171250001      -4.36816318E-34
  0.172499999      -1.79859287E-33
  0.173749998      -3.04061156E-33
  0.174999997      -3.80154763E-33
  0.176249996      -3.73236979E-33
  0.177499995      -2.59295191E-33
  0.178749993      -3.54167448E-34
  0.180000007       2.71905380E-33
  0.181250006       6.03221310E-33
  0.182500005       8.69995197E-33
  0.183750004       9.67648729E-33
  0.185000002       7.97824546E-33
  0.186250001       2.97580362E-33
  0.187500000      -5.29402983E-33
  0.188749999      -1.58687124E-32
  0.189999998      -2.67400515E-32
  0.191249996      -3.49584291E-32
  0.192499995      -3.70217009E-32
  0.193749994      -2.95611615E-32
  0.194999993      -1.02677374E-32
  0.196250007       2.10790485E-32
  0.197500005       6.16942282E-32
  0.198750004       1.05251507E-31
  0.200000003       1.42005783E-31
  0.201250002       1.59797184E-31
  0.202500001       1.46032698E-31
  0.203749999       9.05437278E-32
  0.204999998      -1.10251540E-32
  0.206249997      -1.53893546E-31
  0.207499996      -3.21687524E-31
  0.208749995      -4.85737917E-31
  0.209999993      -6.06940177E-31
  0.211250007      -6.40687914E-31
  0.212500006      -5.44874075E-31
  0.213750005      -2.90261247E-31
  0.215000004       1.28254662E-31
  0.216250002       6.81673406E-31
  0.217500001       1.30086468E-30
  0.218750000       1.87718210E-30
  0.219999999       2.27186082E-30
  0.221249998       2.33516768E-30
  0.222499996       1.93446591E-30
  0.223749995       9.88179514E-31
  0.224999994      -4.99617120E-31
  0.226249993      -2.41109483E-30
  0.227500007      -4.50107357E-30
  0.228750005      -6.40545115E-30
  0.230000004      -7.67692452E-30
  0.231250003      -7.84926291E-30
  0.232500002      -6.52578566E-30
  0.233750001      -3.48148212E-30
  0.234999999       1.23788517E-30
  0.236249998       7.24066302E-30
  0.237499997       1.37605573E-29
  0.238749996       1.96937667E-29
  0.239999995       2.37140311E-29
  0.241249993       2.44653634E-29
  0.242500007       2.08168577E-29
  0.243750006       1.21470448E-29
  0.245000005      -1.38947551E-30
  0.246250004      -1.86699995E-29
  0.247500002      -3.75442077E-29
  0.248750001      -5.49547378E-29
  0.250000000      -6.72634042E-29
  0.251249999      -7.07755060E-29
  0.252499998      -6.24147974E-29
  0.253749996      -4.04607097E-29
  0.254999995      -5.22448822E-30
  0.256249994       4.04777361E-29
  0.257499993       9.11948773E-29
  0.258749992       1.39163196E-28
  0.259999990       1.75132814E-28
  0.261249989       1.89668422E-28
  0.262499988       1.74799990E-28
  0.263749987       1.25804669E-28
  0.264999986       4.28271870E-29
  0.266250014      -6.79915321E-29
  0.267500013      -1.94192744E-28
  0.268750012      -3.17724587E-28
  0.270000011      -4.16816403E-28
  0.271250010      -4.68921812E-28
  0.272500008      -4.54442863E-28
  0.273750007      -3.60747671E-28
  0.275000006      -1.85840841E-28
  0.276250005       5.90216037E-29
  0.277500004       3.48440907E-28
  0.278750002       6.44208063E-28
  0.280000001       8.99072535E-28
  0.281250000       1.06278034E-27
  0.282499999       1.08980017E-27
  0.283749998       9.47754074E-28
  0.284999996       6.25279734E-28
  0.286249995       1.37911438E-28
  0.287499994      -4.69347105E-28
  0.288749993      -1.12376558E-27
  0.289999992      -1.73141564E-27
  0.291249990      -2.18825393E-27
  0.292499989      -2.39474520E-27
  0.293749988      -2.27228899E-27
  0.294999987      -1.77914019E-27
  0.296249986      -9.23248637E-28
  0.297500014       2.30476133E-28
  0.298750013       1.56046240E-27
  0.300000012       2.89746742E-27
  0.301250011       4.04221264E-27
  0.302500010       4.79032125E-27
  0.303750008       4.96193201E-27
  0.305000007       4.43230898E-27
  0.306250006       3.15911098E-27
  0.307500005       1.20190701E-27
  0.308750004      -1.27002609E-27
  0.310000002      -3.98443744E-27
  0.311250001      -6.58857167E-27
  0.312500000      -8.68658500E-27
  0.313749999      -9.88898697E-27
  0.314999998      -9.86915452E-27
  0.316249996      -8.42028050E-27
  0.317499995      -5.50508239E-27
  0.318749994      -1.29029323E-27
  0.319999993       3.84135702E-27
  0.321249992       9.30725290E-27
  0.322499990       1.43719872E-26
  0.323749989       1.82248332E-26
  0.324999988       2.00826561E-26
  0.326249987       1.93090131E-26
  0.327499986       1.55358082E-26
  0.328750014       8.77067803E-27
  0.330000013      -5.28755833E-28
  0.331250012      -1.14320105E-26
  0.332500011      -2.25793900E-26
  0.333750010      -3.23008126E-26
  0.335000008      -3.88091246E-26
  0.336250007      -4.04552124E-26
  0.337500006      -3.60192256E-26
  0.338750005      -2.49997832E-26
  0.340000004      -7.85350397E-27
  0.341250002       1.38667187E-26
  0.342500001       3.75224555E-26
  0.343750000       5.95843405E-26
  0.344999999       7.60226487E-26
  0.346249998       8.28751567E-26
  0.347499996       7.69380786E-26
  0.348749995       5.64902247E-26
  0.349999994       2.19322360E-26
  0.351249993      -2.37919478E-26
  0.352499992      -7.51189531E-26
  0.353749990      -1.24232502E-25
  0.354999989      -1.61915069E-25
  0.356249988      -1.78849916E-25
  0.357499987      -1.67250431E-25
  0.358749986      -1.22602901E-25
  0.360000014      -4.52394812E-26
  0.361250013       5.85821420E-26
  0.362500012       1.76401513E-25
  0.363750011       2.90319770E-25
  0.365000010       3.78913287E-25
  0.366250008       4.20221274E-25
  0.367500007       3.95524825E-25
  0.368750006       2.93423766E-25
  0.370000005       1.13555591E-25
  0.371250004      -1.30784719E-25
  0.372500002      -4.11836718E-25
  0.373750001      -6.88926379E-25
  0.375000000      -9.12629829E-25
  0.376249999      -1.03139215E-24
  0.377499998      -9.99984735E-25
  0.378749996      -7.88722411E-25
  0.379999995      -3.92007787E-25
  0.381249994       1.65417722E-25
  0.382499993       8.26072756E-25
  0.383749992       1.50239733E-24
  0.384999990       2.08506685E-24
  0.386249989       2.45668877E-24
  0.387499988       2.50966749E-24
  0.388749987       2.16604481E-24
  0.389999986       1.39639474E-24
  0.391250014       2.34449190E-25
  0.392500013      -1.21579420E-24
  0.393750012      -2.78305651E-24
  0.395000011      -4.24324810E-24
  0.396250010      -5.34516767E-24
  0.397500008      -5.84528852E-24
  0.398750007      -5.54765012E-24
  0.400000006      -4.34334548E-24
  0.401250005      -2.24325693E-24
  0.402500004       6.02273361E-25
  0.403750002       3.90214228E-24
  0.405000001       7.24469424E-24
  0.406250000       1.01397996E-23
  0.407499999       1.20797103E-23
  0.408749998       1.26122766E-23
  0.409999996       1.14172210E-23
  0.411249995       8.37439670E-24
  0.412499994       3.61262638E-24
  0.413749993      -2.47094783E-24
  0.414999992      -9.22793552E-24
  0.416249990      -1.58146243E-23
  0.417499989      -2.12837954E-23
  0.418749988      -2.47037740E-23
  0.419999987      -2.52911615E-23
  0.421249986      -2.25400374E-23
  0.422500014      -1.63290784E-23
  0.423750013      -6.98912539E-24
  0.425000012       4.68279469E-24
  0.426250011       1.74706705E-23
  0.427500010       2.98484204E-23
  0.428750008       4.01424714E-23
  0.430000007       4.67321390E-23
  0.431250006       4.82655552E-23
  0.432500005       4.38650429E-23
  0.433750004       3.32947296E-23
  0.435000002       1.70657198E-23
  0.436250001      -3.53987921E-24
  0.437500000      -2.65370884E-23
  0.438749999      -4.93986245E-23
  0.439999998      -6.92980037E-23
  0.441249996      -8.34147580E-23
  0.442499995      -8.92725866E-23
  0.443749994      -8.50753985E-23
  0.444999993      -7.00032138E-23
  0.446249992      -4.44299809E-23
  0.447499990      -1.00304824E-23
  0.448749989       3.02488809E-23
  0.449999988       7.23694620E-23
  0.451249987       1.11529420E-22
  0.452499986       1.42626481E-22
  0.453750014       1.60821034E-22
  0.455000013       1.62150536E-22
  0.456250012       1.44130984E-22
  0.457500011       1.06273397E-22
  0.458750010       5.04384820E-23
  0.460000008      -1.90414677E-23
  0.461250007      -9.55278244E-23
  0.462500006      -1.70558430E-22
  0.463750005      -2.34641009E-22
  0.465000004      -2.78308537E-22
  0.466250002      -2.93343267E-22
  0.467500001      -2.74033971E-22
  0.468750000      -2.18300204E-22
  0.469999999      -1.28506413E-22
  0.471249998      -1.17967348E-23
  0.472499996       1.20177014E-22
  0.473749995       2.52198604E-22
  0.474999994       3.67075912E-22
  0.476249993       4.47748917E-22
  0.477499992       4.79689933E-22
  0.478749990       4.53286999E-22
  0.479999989       3.65849227E-22
  0.481249988       2.22874436E-22
  0.482499987       3.82747738E-23
  0.483749986      -1.66627631E-22
  0.485000014      -3.65360587E-22
  0.486250013      -5.29643433E-22
  0.487500012      -6.33438091E-22
  0.488750011      -6.57167330E-22
  0.490000010      -5.91446305E-22
  0.491250008      -4.39662046E-22
  0.492500007      -2.18819287E-22
  0.493750006       4.17158734E-23
  0.495000005       3.03657680E-22
  0.496250004       5.25146244E-22
  0.497500002       6.67359261E-22
  0.498750001       7.01442546E-22
  0.500000000       6.14621196E-22
  0.501250029       4.14325525E-22
  0.502499998       1.29341281E-22
  0.503750026      -1.92643885E-22
  0.504999995      -4.91188774E-22
  0.506250024      -7.02405234E-22
  0.507499993      -7.70259792E-22
  0.508750021      -6.58173639E-22
  0.509999990      -3.58921463E-22
  0.511250019       9.91885303E-23
  0.512499988       6.51535242E-22
  0.513750017       1.20280200E-21
  0.514999986       1.63904556E-21
  0.516250014       1.84515197E-21
  0.517499983       1.72551653E-21
  0.518750012       1.22489424E-21
  0.519999981       3.45852221E-22
  0.521250010      -8.40735237E-22
  0.522499979      -2.19507683E-21
  0.523750007      -3.51946933E-21
  0.524999976      -4.58096905E-21
  0.526250005      -5.14384607E-21
  0.527499974      -5.00802042E-21
  0.528750002      -4.04813831E-21
  0.529999971      -2.24702745E-21
  0.531250000       2.82757435E-22
  0.532500029       3.29454123E-21
  0.533749998       6.42358979E-21
  0.535000026       9.22409377E-21
  0.536249995       1.12243336E-20
  0.537500024       1.19939969E-20
  0.538749993       1.12150286E-20
  0.540000021       8.74552778E-21
  0.541249990       4.66612543E-21
  0.542500019      -7.00466327E-22
  0.543749988      -6.80309363E-21
  0.545000017      -1.29110025E-20
  0.546249986      -1.81948926E-20
  0.547500014      -2.18319782E-20
  0.548749983      -2.31223428E-20
  0.550000012      -2.16008620E-20
  0.551249981      -1.71280671E-20
  0.552500010      -9.94453577E-21
  0.553749979      -6.77563007E-22
  0.555000007       9.70546522E-21
  0.556249976       1.99952398E-20
  0.557500005       2.88807720E-20
  0.558749974       3.51155392E-20
  0.560000002       3.76881808E-20
  0.561249971       3.59743756E-20
  0.562500000       2.98471516E-20
  0.563750029       1.97276744E-20
  0.564999998       6.56561969E-21
  0.566250026      -8.25243766E-21
  0.567499995      -2.30578034E-20
  0.568750024      -3.60997743E-20
  0.569999993      -4.57655122E-20
  0.571250021      -5.07906441E-20
  0.572499990      -5.04309854E-20
  0.573750019      -4.45710473E-20
  0.574999988      -3.37519934E-20
  0.576250017      -1.91137238E-20
  0.577499986      -2.25687930E-21
  0.578750014       1.49573900E-20
  0.579999983       3.06429510E-20
  0.581250012       4.31272035E-20
  0.582499981       5.11592274E-20
  0.583750010       5.40580948E-20
  0.584999979       5.17809247E-20
  0.586250007       4.49009114E-20
  0.587499976       3.44994609E-20
  0.588750005       2.19890989E-20
  0.589999974       8.89381040E-21
  0.591250002      -3.37931614E-21
  0.592499971      -1.37425864E-20
  0.593750000      -2.15727767E-20
  0.595000029      -2.67760368E-20
  0.596249998      -2.97616999E-20
  0.597500026      -3.13275949E-20
  0.598749995      -3.24735211E-20
  0.600000024      -3.41704886E-20
  0.601249993      -3.71213068E-20
  0.602500021      -4.15511110E-20
  0.603749990      -4.70639725E-20
  0.605000019      -5.25942759E-20
  0.606249988      -5.64708966E-20
  0.607500017      -5.65972743E-20
  0.608749986      -5.07357303E-20
  0.610000014      -3.68698407E-20
  0.611249983      -1.36056719E-20
  0.612500012       1.94365197E-20
  0.613749981       6.12935406E-20
  0.615000010       1.09446748E-19
  0.616249979       1.59773839E-19
  0.617500007       2.06702315E-19
  0.618749976       2.43584657E-19
  0.620000005       2.63295079E-19
  0.621249974       2.59020675E-19
  0.622500002       2.25192813E-19
  0.623749971       1.58475139E-19
  0.625000000       5.86997542E-20
  0.626250029      -7.03759126E-20
  0.627499998      -2.20626440E-19
  0.628750026      -3.79558519E-19
  0.629999995      -5.30853911E-19
  0.631250024      -6.55512305E-19
  0.632499993      -7.33582800E-19
  0.633750021      -7.46395983E-19
  0.634999990      -6.79119677E-19
  0.636250019      -5.23377956E-19
  0.637499988      -2.79607546E-19
  0.638750017       4.12130171E-20
  0.639999986       4.16814372E-19
  0.641250014       8.14170819E-19
  0.642499983       1.19150228E-18
  0.643750012       1.50177101E-18
  0.644999981       1.69749652E-18
  0.646250010       1.73651267E-18
  0.647499979       1.58807552E-18
  0.648750007       1.23858923E-18
  0.649999976       6.96133749E-19
  0.651250005      -7.00204834E-21
  0.652499974      -8.14441514E-19
  0.653750002      -1.64890359E-18
  0.654999971      -2.41851605E-18
  0.656250000      -3.02590444E-18
  0.657500029      -3.37929419E-18
  0.658749998      -3.40446509E-18
  0.660000026      -3.05612837E-18
  0.661249995      -2.32717546E-18
  0.662500024      -1.25433451E-18
  0.663749993       8.09705324E-20
  0.665000021       1.55723502E-18
  0.666249990       3.02302254E-18
  0.667500019       4.31197094E-18
  0.668749988       5.26127112E-18
  0.670000017       5.73157541E-18
  0.671249986       5.62597919E-18
  0.672500014       4.90549784E-18
  0.673749983       3.59876258E-18
  0.675000012       1.80415764E-18
  0.676249981      -3.16507349E-19
  0.677500010      -2.55266427E-18
  0.678749979      -4.66674167E-18
  0.680000007      -6.42073473E-18
  0.681249976      -7.60446741E-18
  0.682500005      -8.06204139E-18
  0.683749974      -7.71291824E-18
  0.685000002      -6.56461577E-18
  0.686249971      -4.71495141E-18
  0.687500000      -2.34303789E-18
  0.688750029       3.10214934E-19
  0.689999998       2.96992292E-18
  0.691250026       5.35991861E-18
  0.692499995       7.23604530E-18
  0.693750024       8.41556515E-18
  0.694999993       8.79854812E-18
  0.696250021       8.37814929E-18
  0.697499990       7.23819349E-18
  0.698750019       5.53835264E-18
  0.699999988       3.48897793E-18
  0.701250017       1.31938224E-18
  0.702499986      -7.55579910E-19
  0.703750014      -2.56535322E-18
  0.704999983      -4.00506666E-18
  0.706250012      -5.04481243E-18
  0.707499981      -5.72504730E-18
  0.708750010      -6.13859211E-18
  0.709999979      -6.40212689E-18
  0.711250007      -6.62199357E-18
  0.712499976      -6.86060788E-18
  0.713750005      -7.11008886E-18
  0.714999974      -7.27908930E-18
  0.716250002      -7.19696433E-18
  0.717499971      -6.63689977E-18
  0.718750000      -5.35621822E-18
  0.720000029      -3.14898850E-18
  0.721249998       9.68251161E-20
  0.722500026       4.34732298E-18
  0.723749995       9.38580169E-18
  0.725000024       1.48000512E-17
  0.726249993       2.00001800E-17
  0.727500021       2.42691897E-17
  0.728749990       2.68437810E-17
  0.730000019       2.70176097E-17
  0.731249988       2.42548745E-17
  0.732500017       1.82986711E-17
  0.733749986       9.25739762E-18
  0.735000014      -2.34652921E-18
  0.736249983      -1.55779881E-17
  0.737500012      -2.91472375E-17
  0.738749981      -4.15241226E-17
  0.740000010      -5.11001246E-17
  0.741249979      -5.63820467E-17
  0.742500007      -5.61953752E-17
  0.743749976      -4.98711592E-17
  0.745000005      -3.73901486E-17
  0.746249974      -1.94605389E-17
  0.747500002       2.48755213E-18
  0.748749971       2.63988886E-17
  0.750000000       4.97775918E-17
  0.751250029       6.99443941E-17
  0.752499998       8.43408176E-17
  0.753750026       9.08463416E-17
  0.754999995       8.80699397E-17
  0.756250024       7.55777787E-17
  0.757499993       5.40231989E-17
  0.758750021       2.51557337E-17
  0.759999990      -8.30188324E-18
  0.761250019      -4.29031882E-17
  0.762499988      -7.48330646E-17
  0.763750017      -1.00332482E-16
  0.764999986      -1.16146455E-16
  0.766250014      -1.19942049E-16
  0.767499983      -1.10643990E-16
  0.768750012      -8.86419119E-17
  0.769999981      -5.58349296E-17
  0.771250010      -1.54984480E-17
  0.772499979       2.80231454E-17
  0.773750007       6.97716126E-17
  0.774999976       1.04732997E-16
  0.776250005       1.28437670E-16
  0.777499974       1.37533163E-16
  0.778750002       1.30258553E-16
  0.779999971       1.06757061E-16
  0.781250000       6.91778425E-17
  0.782500029       2.15405839E-17
  0.783749998      -3.06370692E-17
  0.785000026      -8.09209816E-17
  0.786249995      -1.22695674E-16
  0.787500024      -1.49975045E-16
  0.788749993      -1.58196307E-16
  0.790000021      -1.44899716E-16
  0.791249990      -1.10202408E-16
  0.792500019      -5.69928501E-17
  0.793749988       9.20024109E-18
  0.795000017       8.06761428E-17
  0.796249986       1.48338127E-16
  0.797500014       2.02710125E-16
  0.798749983       2.35090871E-16
  0.800000012       2.38718396E-16
  0.801249981       2.09803602E-16
  0.802500010       1.48296398E-16
  0.803749979       5.82666090E-17
  0.805000007      -5.21816103E-17
  0.806249976      -1.71495293E-16
  0.807500005      -2.85733806E-16
  0.808749974      -3.80022364E-16
  0.810000002      -4.40259933E-16
  0.811249971      -4.54899362E-16
  0.812500000      -4.16594229E-16
  0.813750029      -3.23501867E-16
  0.814999998      -1.80056560E-16
  0.816250026       2.92823405E-18
  0.817499995       2.08899567E-16
  0.818750024       4.16937966E-16
  0.819999993       6.03762755E-16
  0.821250021       7.46188910E-16
  0.822499990       8.23782105E-16
  0.823750019       8.21419359E-16
  0.824999988       7.31445243E-16
  0.826250017       5.55144600E-16
  0.827499986       3.03308840E-16
  0.828750014      -4.23126044E-18
  0.829999983      -3.40125180E-16
  0.831250012      -6.71963096E-16
  0.832499981      -9.65453447E-16
  0.833750010      -1.18799431E-15
  0.834999979      -1.31225002E-15
  0.836250007      -1.31933015E-15
  0.837499976      -1.20118738E-15
  0.838750005      -9.61937096E-16
  0.839999974      -6.17908365E-16
  0.841250002      -1.96388440E-16
  0.842499971       2.66834357E-16
  0.843750000       7.30870849E-16
  0.845000029       1.15370758E-15
  0.846249998       1.49631642E-15
  0.847500026       1.72644193E-15
  0.848749995       1.82164282E-15
  0.850000024       1.77127210E-15
  0.851249993       1.57720076E-15
  0.852500021       1.25326000E-15
  0.853749990       8.23529795E-16
  0.855000019       3.19751417E-16
  0.856249988      -2.21776612E-16
  0.857500017      -7.63401361E-16
  0.858749986      -1.26903122E-15
  0.860000014      -1.70644454E-15
  0.861249983      -2.04881473E-15
  0.862500012      -2.27540896E-15
  0.863749981      -2.37157790E-15
  0.865000010      -2.32828732E-15
  0.866249979      -2.14151232E-15
  0.867500007      -1.81182486E-15
  0.868749976      -1.34446247E-15
  0.870000005      -7.50015276E-16