 -0.200000003       0.00000000    
 -0.198750004       0.00000000    
 -0.197500005       0.00000000    
 -0.196250007       0.00000000    
 -0.194999993       0.00000000    
 -0.193749994       0.00000000    
 -0.192499995       0.00000000    
 -0.191249996       0.00000000    
 -0.189999998       1.28067083E-32
 -0.188749999       2.13008839E-31
 -0.187500000       1.81774346E-30
 -0.186250001       1.05782319E-29
 -0.185000002       4.70398880E-29
 -0.183750004       1.69652725E-28
 -0.182500005       5.13623753E-28
 -0.181250006       1.33101057E-27
 -0.180000007       2.97575089E-27
 -0.178749993       5.71077132E-27
 -0.177499995       9.15221015E-27
 -0.176249996       1.11885629E-26
 -0.174999997       6.45744781E-27
 -0.173749998      -1.49149223E-26
 -0.172499999      -6.65439672E-26
 -0.171250001      -1.59934461E-25
 -0.170000002      -2.89703152E-25
 -0.168750003      -4.07079369E-25
 -0.167500004      -3.83579523E-25
 -0.166250005       2.32722903E-26
 -0.165000007       1.17483437E-24
 -0.163749993       3.48146406E-24
 -0.162499994       7.19959191E-24
 -0.161249995       1.20428760E-23
 -0.159999996       1.65951201E-23
 -0.158749998       1.76038082E-23
 -0.157499999       9.37996558E-24
 -0.156250000      -1.62844809E-23
 -0.155000001      -6.90969073E-23
 -0.153750002      -1.57483546E-22
 -0.152500004      -2.83536754E-22
 -0.151250005      -4.35668718E-22
 -0.150000006      -5.79864515E-22
 -0.148750007      -6.51737947E-22
 -0.147499993      -5.53099436E-22
 -0.146249995      -1.58023594E-22
 -0.144999996       6.66174834E-22
 -0.143749997       2.01884293E-21
 -0.142499998       3.90605469E-21
 -0.141249999       6.16627240E-21
 -0.140000001       8.39550436E-21
 -0.138750002       9.89536134E-21
 -0.137500003       9.67553405E-21
 -0.136250004       6.54562519E-21
 -0.135000005      -6.73898047E-22
 -0.133750007      -1.28089112E-20
 -0.132499993      -2.98748589E-20
 -0.131249994      -5.05665008E-20
 -0.129999995      -7.18036780E-20
 -0.128749996      -8.84876073E-20
 -0.127499998      -9.36488201E-20
 -0.126249999      -7.91596207E-20
 -0.125000000      -3.71262537E-20
 -0.123750001       3.80400363E-20
 -0.122500002       1.47045235E-19
 -0.121250004       2.83009067E-19
 -0.119999997       4.29227484E-19
 -0.118749999       5.58154852E-19
 -0.117500000       6.32411063E-19
 -0.116250001       6.08503268E-19
 -0.115000002       4.43625131E-19
 -0.113750003       1.05350350E-19
 -0.112499997      -4.16691174E-19
 -0.111249998      -1.09887987E-18
 -0.109999999      -1.87389434E-18
 -0.108750001      -2.62619898E-18
 -0.107500002      -3.19575129E-18
 -0.106250003      -3.39236633E-18
 -0.104999997      -3.02185683E-18
 -0.103749998      -1.92304645E-18
 -0.102499999      -1.22038479E-20
 -0.101250000       2.67127805E-18
 -0.100000001       5.92654147E-18
  -9.87500027E-02   9.37033341E-18
  -9.74999964E-02   1.24435377E-17
  -9.62499976E-02   1.44532325E-17
  -9.49999988E-02   1.46541365E-17
  -9.37500000E-02   1.23670541E-17
  -9.25000012E-02   7.12420139E-18
  -9.12500024E-02  -1.17685333E-18
  -9.00000036E-02  -1.21360780E-17
  -8.87499973E-02  -2.47606805E-17
  -8.74999985E-02  -3.74519919E-17
  -8.62499997E-02  -4.80948087E-17
  -8.50000009E-02  -5.42634320E-17
  -8.37500021E-02  -5.35419651E-17
  -8.25000033E-02  -4.39357082E-17
  -8.12499970E-02  -2.43282884E-17
  -7.99999982E-02   5.08098710E-18
  -7.87499994E-02   4.24390043E-17
  -7.75000006E-02   8.40832798E-17
  -7.62500018E-02   1.24642936E-16
  -7.50000030E-02   1.57445822E-16
  -7.37499967E-02   1.75242991E-16
  -7.24999979E-02   1.71211895E-16
  -7.12499991E-02   1.40144738E-16
  -7.00000003E-02   7.96758101E-17
  -6.87500015E-02  -8.63902634E-18
  -6.75000027E-02  -1.18597133E-16
  -6.62499964E-02  -2.39175211E-16
  -6.49999976E-02  -3.55060780E-16
  -6.37499988E-02  -4.47966344E-16
  -6.25000000E-02  -4.98697742E-16
  -6.12500012E-02  -4.89825071E-16
  -5.99999987E-02  -4.08679447E-16
  -5.87499999E-02  -2.50290295E-16
  -5.75000010E-02  -1.98078539E-17
  -5.62499985E-02   2.66059163E-16
  -5.49999997E-02   5.79006841E-16
  -5.37500009E-02   8.80789328E-16
  -5.24999984E-02   1.12665525E-15
  -5.12499996E-02   1.27041601E-15
  -5.00000007E-02   1.27072327E-15
  -4.87499982E-02   1.09788101E-15
  -4.74999994E-02   7.40312143E-16
  -4.62500006E-02   2.09690669E-16
  -4.50000018E-02  -4.56234339E-16
  -4.37499993E-02  -1.19394069E-15
  -4.25000004E-02  -1.91807583E-15
  -4.12500016E-02  -2.52913005E-15
  -3.99999991E-02  -2.92442148E-15
  -3.87500003E-02  -3.01143972E-15
  -3.75000015E-02  -2.72211169E-15
  -3.62499990E-02  -2.02619048E-15
  -3.50000001E-02  -9.41800264E-16
  -3.37500013E-02   4.58752568E-16
  -3.24999988E-02   2.04944492E-15
  -3.12500000E-02   3.65820867E-15
  -2.99999993E-02   5.08191054E-15
  -2.87500005E-02   6.10778052E-15
  -2.74999999E-02   6.53944037E-15
  -2.62499992E-02   6.22480405E-15
  -2.50000004E-02   5.08248059E-15
  -2.37499997E-02   3.12302784E-15
  -2.25000009E-02   4.61559900E-16
  -2.12500002E-02  -2.68114812E-15
  -1.99999996E-02  -5.99082306E-15
  -1.87500007E-02  -9.08542193E-15
  -1.75000001E-02  -1.15530212E-14
  -1.62499994E-02  -1.29987336E-14
  -1.49999997E-02  -1.30959637E-14
  -1.37499999E-02  -1.16361600E-14
  -1.25000002E-02  -8.57066815E-15
  -1.12500004E-02  -4.03846590E-15
  -9.99999978E-03   1.62544945E-15
  -8.75000004E-03   7.90449876E-15
  -7.49999983E-03   1.41388722E-14
  -6.25000009E-03   1.95860733E-14
  -4.99999989E-03   2.34990148E-14
  -3.74999992E-03   2.52143700E-14
  -2.49999994E-03   2.42417492E-14
  -1.24999997E-03   2.03431310E-14
   0.00000000       1.35919328E-14
   1.24999997E-03   4.40234066E-15
   2.49999994E-03  -6.47795848E-15
   3.74999992E-03  -1.80149271E-14
   4.99999989E-03  -2.89741308E-14
   6.25000009E-03  -3.80397279E-14
   7.49999983E-03  -4.39562530E-14
   8.75000004E-03  -4.56792095E-14
   9.99999978E-03  -4.25179877E-14
   1.12500004E-02  -3.42538396E-14
   1.25000002E-02  -2.12167574E-14
   1.37499999E-02  -4.30819168E-15
   1.49999997E-02   1.50385363E-14
   1.62499994E-02   3.49619524E-14
   1.75000001E-02   5.33349915E-14
   1.87500007E-02   6.79739129E-14
   1.99999996E-02   7.68746164E-14
   2.12500002E-02   7.84525778E-14
   2.25000009E-02   7.17598656E-14
   2.37499997E-02   5.66529584E-14
   2.50000004E-02   3.38880366E-14
   2.62499992E-02   5.12641831E-15
   2.74999999E-02  -2.71587359E-14
   2.87500005E-02  -5.98731947E-14
   2.99999993E-02  -8.95777660E-14
   3.12500000E-02  -1.12827181E-13
   3.24999988E-02  -1.26540190E-13
   3.37500013E-02  -1.28363398E-13
   3.50000001E-02  -1.16988640E-13
   3.62499990E-02  -9.23856803E-14
   3.75000015E-02  -5.59177575E-14
   3.87500003E-02  -1.03177922E-14
   3.99999991E-02   4.04836856E-14
   4.12500016E-02   9.16725598E-14
   4.25000004E-02   1.37984879E-13
   4.37499993E-02   1.74223591E-13
   4.50000018E-02   1.95809542E-13
   4.62500006E-02   1.99310823E-13
   4.74999994E-02   1.82892574E-13
   4.87499982E-02   1.46633370E-13
   5.00000007E-02   9.26647404E-14
   5.12499996E-02   2.51059719E-14
   5.24999984E-02  -5.02140511E-14
   5.37500009E-02  -1.26233984E-13
   5.49999997E-02  -1.95300278E-13
   5.62499985E-02  -2.49914754E-13
   5.75000010E-02  -2.83518814E-13
   5.87499999E-02  -2.91234593E-13
   5.99999987E-02  -2.70482746E-13
   6.12500012E-02  -2.21404112E-13
   6.25000000E-02  -1.47028223E-13
   6.37499988E-02  -5.31546683E-14
   6.49999976E-02   5.20590346E-14
   6.62499964E-02   1.58779104E-13
   6.75000027E-02   2.56393078E-13
   6.87500015E-02   3.34543916E-13
   7.00000003E-02   3.84202192E-13
   7.12499991E-02   3.98667888E-13
   7.24999979E-02   3.74394444E-13
   7.37499967E-02   3.11539640E-13
   7.50000030E-02   2.14170207E-13
   7.62500018E-02   9.00791960E-14
   7.75000006E-02  -4.97875971E-14
   7.87499994E-02  -1.92259931E-13
   7.99999982E-02  -3.23151336E-13
   8.12499970E-02  -4.28639492E-13
   8.25000033E-02  -4.96687652E-13
   8.37500021E-02  -5.18364811E-13
   8.50000009E-02  -4.88924602E-13
   8.62499997E-02  -4.08520657E-13
   8.74999985E-02  -2.82466054E-13
   8.87499973E-02  -1.20986364E-13
   9.00000036E-02   6.15359611E-14
   9.12500024E-02   2.47776599E-13
   9.25000012E-02   4.19046173E-13
   9.37500000E-02   5.57089964E-13
   9.49999988E-02   6.45942230E-13
   9.62499976E-02   6.73653733E-13
   9.74999964E-02   6.33714164E-13
   9.87500027E-02   5.26013315E-13
  0.100000001       3.57222661E-13
  0.101250000       1.40529854E-13
  0.102499999      -1.05280517E-13
  0.103749998      -3.57343929E-13
  0.104999997      -5.90714110E-13
  0.106250003      -7.80674299E-13
  0.107500002      -9.05155779E-13
  0.108750001      -9.47038346E-13
  0.109999999      -8.96108762E-13
  0.111249998      -7.50474607E-13
  0.112499997      -5.17273561E-13
  0.113750003      -2.12575915E-13
  0.115000002       1.39552581E-13
  0.116250001       5.08785071E-13
  0.117500000       8.60948248E-13
  0.118749999       1.16093528E-12
  0.119999997       1.37588064E-12
  0.121250004       1.47832864E-12
  0.122500002       1.44911416E-12
  0.123750001       1.27968578E-12
  0.125000000       9.73637078E-13
  0.126249999       5.47268177E-13
  0.127499998       2.90703164E-14
  0.128749996      -5.41885384E-13
  0.129999995      -1.11858797E-12
  0.131249994      -1.64959702E-12
  0.132499993      -2.08318475E-12
  0.133750007      -2.37180826E-12
  0.135000005      -2.47656062E-12
  0.136250004      -2.37123168E-12
  0.137500003      -2.04561520E-12
  0.138750002      -1.50773198E-12
  0.140000001      -7.84702490E-13
  0.141249999       7.79111679E-14
  0.142499998       1.01836595E-12
  0.143749997       1.96255122E-12
  0.144999996       2.82917526E-12
  0.146249995       3.53602260E-12
  0.147499993       4.00686082E-12
  0.148750007       4.17848655E-12
  0.150000006       4.00733917E-12
  0.151250005       3.47508784E-12
  0.152500004       2.59262338E-12
  0.153750002       1.40196145E-12
  0.155000001      -2.43175976E-14
  0.156250000      -1.58629479E-12
  0.157499999      -3.16260473E-12
  0.158749998      -4.61876848E-12
  0.159999996      -5.81750360E-12
  0.161249995      -6.63032823E-12
  0.162499994      -6.94958891E-12
  0.163749993      -6.69990712E-12
  0.165000007      -5.84797792E-12
  0.166250005      -4.40968616E-12
  0.167500004      -2.45362476E-12
  0.168750003      -1.00327942E-13
  0.170000002       2.48317100E-12
  0.171250001       5.09345474E-12
  0.172499999       7.50509550E-12
  0.173749998       9.48843695E-12
  0.174999997       1.08295317E-11
  0.176249996       1.13506626E-11
  0.177499995       1.09296400E-11
  0.178749993       9.51600430E-12
  0.180000007       7.14235485E-12
  0.181250006       3.92928788E-12
  0.182500005       8.28638644E-14
  0.183750004      -4.11588775E-12
  0.185000002      -8.32923661E-12
  0.186250001      -1.21878575E-11
  0.187500000      -1.53211142E-11
  0.188749999      -1.73902281E-11
  0.189999998      -1.81215477E-11
  0.191249996      -1.73368733E-11
  0.192499995      -1.49777725E-11
  0.193749994      -1.11211249E-11
  0.194999993      -5.98369141E-12
  0.196250007       8.56709045E-14
  0.197500005       6.62648278E-12
  0.198750004       1.30989941E-11
  0.200000003       1.89264160E-11
  0.201250002       2.35439619E-11
  0.202500001       2.64507236E-11
  0.203749999       2.72598333E-11
  0.204999998       2.57421497E-11
  0.206249997       2.18589417E-11
  0.207499996       1.57797109E-11
  0.208749995       7.88238832E-12
  0.209999993      -1.26542429E-12
  0.211250007      -1.09438457E-11
  0.212500006      -2.03346454E-11
  0.213750005      -2.85879410E-11
  0.215000004      -3.48964468E-11
  0.216250002      -3.85709728E-11
  0.217500001      -3.91103504E-11
  0.218750000      -3.62590097E-11
  0.219999999      -3.00461184E-11
  0.221249998      -2.08015237E-11
  0.222499996      -9.14556018E-12
  0.223749995       4.04797766E-12
  0.224999994       1.77139779E-11
  0.226249993       3.06791294E-11
  0.227500007       4.17596860E-11
  0.228750005       4.98658927E-11
  0.230000004       5.41039401E-11
  0.231250003       5.38661303E-11
  0.232500002       4.89004393E-11
  0.233750001       3.93521188E-11
  0.234999999       2.57721414E-11
  0.236249998       9.09004903E-12
  0.237499997      -9.44807860E-12
  0.238749996      -2.83726567E-11
  0.239999995      -4.61077218E-11
  0.241249993      -6.11027409E-11
  0.242500007      -7.19679524E-11
  0.243750006      -7.76013351E-11
  0.245000005      -7.72954339E-11
  0.246250004      -7.08137923E-11
  0.247500002      -5.84289839E-11
  0.248750001      -4.09174049E-11
  0.250000000      -1.95097376E-11
  0.251249999       4.20003182E-12
  0.252499998       2.83803640E-11
  0.253749996       5.11126558E-11
  0.254999995       7.05538752E-11
  0.256249994       8.50973320E-11
  0.257499993       9.35173119E-11
  0.258749992       9.50843640E-11
  0.259999990       8.96403923E-11
  0.261249989       7.76259265E-11
  0.262499988       6.00561822E-11
  0.263749987       3.84470129E-11
  0.264999986       1.46962702E-11
  0.266250014      -9.06963740E-12
  0.267500013      -3.06710421E-11
  0.268750012      -4.80569716E-11
  0.270000011      -5.94778046E-11
  0.271250010      -6.36332306E-11
  0.272500008      -5.97821584E-11
  0.273750007      -4.78044097E-11
  0.275000006      -2.82083593E-11
  0.276250005      -2.08350004E-12
  0.277500004       2.89983905E-11
  0.278750002       6.31250191E-11
  0.280000001       9.82158521E-11
  0.281250000       1.32209924E-10
  0.282499999       1.63252675E-10
  0.283749998       1.89865429E-10
  0.284999996       2.11082651E-10
  0.286249995       2.26545255E-10
  0.287499994       2.36542008E-10
  0.288749993       2.41995812E-10
  0.289999992       2.44397114E-10
  0.291249990       2.45690690E-10
  0.292499989       2.48126492E-10
  0.293749988       2.54088667E-10
  0.294999987       2.65918482E-10
  0.296249986       2.85746871E-10
  0.297500014       3.15351828E-10
  0.298750013       3.56052632E-10
  0.300000012       4.08649975E-10
  0.301250011       4.73416473E-10
  0.302500010       5.50137436E-10
  0.303750008       6.38197051E-10
  0.305000007       7.36701145E-10
  0.306250006       8.44624926E-10
  0.307500005       9.60971858E-10
  0.308750004       1.08492948E-09
  0.310000002       1.21600796E-09
  0.311250001       1.35415090E-09
  0.312500000       1.49980905E-09
  0.313749999       1.65397307E-09
  0.314999998       1.81816340E-09
  0.316249996       1.99438110E-09
  0.317499995       2.18502660E-09
  0.318749994       2.39279596E-09
  0.319999993       2.62056576E-09
  0.321249992       2.87127788E-09
  0.322499990       3.14783555E-09
  0.323749989       3.45302076E-09
  0.324999988       3.78943810E-09
  0.326249987       4.15949319E-09
  0.327499986       4.56540095E-09
  0.328750014       5.00922503E-09
  0.330000013       5.49294255E-09
  0.331250012       6.01852479E-09
  0.332500011       6.58802835E-09
  0.333750010       7.20368520E-09
  0.335000008       7.86798537E-09
  0.336250007       8.58374527E-09
  0.337500006       9.35415656E-09
  0.338750005       1.01828102E-08
  0.340000004       1.10736984E-08
  0.341250002       1.20311991E-08
  0.342500001       1.30600419E-08
  0.343750000       1.41652619E-08
  0.344999999       1.53521480E-08
  0.346249998       1.66261955E-08
  0.347499996       1.79930524E-08
  0.348749995       1.94584864E-08
  0.349999994       2.10283542E-08
  0.351249993       2.27085852E-08
  0.352499992       2.45051730E-08
  0.353749990       2.64241748E-08
  0.354999989       2.84717228E-08
  0.356249988       3.06540322E-08
  0.357499987       3.29774110E-08
  0.358749986       3.54482665E-08
  0.360000014       3.80731109E-08
  0.361250013       4.08585556E-08
  0.362500012       4.38113013E-08
  0.363750011       4.69381334E-08
  0.365000010       5.02459265E-08
  0.366250008       5.37416192E-08
  0.367500007       5.74322065E-08
  0.368750006       6.13247551E-08
  0.370000005       6.54263701E-08
  0.371250004       6.97442104E-08
  0.372500002       7.42854667E-08
  0.373750001       7.90573651E-08
  0.375000000       8.40671319E-08
  0.376249999       8.93219578E-08
  0.377499998       9.48289625E-08
  0.378749996       1.00595145E-07
  0.379999995       1.06627283E-07
  0.381249994       1.12931836E-07
  0.382499993       1.19514880E-07
  0.383749992       1.26382005E-07
  0.384999990       1.33538222E-07
  0.386249989       1.40987893E-07
  0.387499988       1.48734671E-07
  0.388749987       1.56781468E-07
  0.389999986       1.65130459E-07
  0.391250014       1.73783079E-07
  0.392500013       1.82740095E-07
  0.393750012       1.92001679E-07
  0.395000011       2.01567474E-07
  0.396250010       2.11436671E-07
  0.397500008       2.21608090E-07
  0.398750007       2.32080197E-07
  0.400000006       2.42851115E-07
  0.401250005       2.53918614E-07
  0.402500004       2.65280107E-07
  0.403750002       2.76932411E-07
  0.405000001       2.88871661E-07
  0.406250000       3.01093223E-07
  0.407499999       3.13591471E-07
  0.408749998       3.26359583E-07
  0.409999996       3.39389516E-07
  0.411249995       3.52671890E-07
  0.412499994       3.66195877E-07
  0.413749993       3.79949284E-07
  0.414999992       3.93918668E-07
  0.416249990       4.08089534E-07
  0.417499989       4.22446448E-07
  0.418749988       4.36973323E-07
  0.419999987       4.51653705E-07
  0.421249986       4.66470965E-07
  0.422500014       4.81408506E-07
  0.423750013       4.96449900E-07
  0.425000012       5.11579231E-07
  0.426250011       5.26780809E-07
  0.427500010       5.42039231E-07
  0.428750008       5.57339320E-07
  0.430000007       5.72665897E-07
  0.431250006       5.88003445E-07
  0.432500005       6.03335877E-07
  0.433750004       6.18646482E-07
  0.435000002       6.33917580E-07
  0.436250001       6.49130300E-07
  0.437500000       6.64264689E-07
  0.438749999       6.79299831E-07
  0.439999998       6.94213838E-07
  0.441249996       7.08984146E-07
  0.442499995       7.23588130E-07
  0.443749994       7.38003337E-07
  0.444999993       7.52207939E-07
  0.446249992       7.66181302E-07
  0.447499990       7.79904269E-07
  0.448749989       7.93359561E-07
  0.449999988       8.06531830E-07
  0.451249987       8.19407830E-07
  0.452499986       8.31976536E-07
  0.453750014       8.44228509E-07
  0.455000013       8.56155737E-07
  0.456250012       8.67751396E-07
  0.457500011       8.79009065E-07
  0.458750010       8.89922376E-07
  0.460000008       9.00484565E-07
  0.461250007       9.10688129E-07
  0.462500006       9.20524599E-07
  0.463750005       9.29984367E-07
  0.465000004       9.39056747E-07
  0.466250002       9.47730427E-07
  0.467500001       9.55993642E-07
  0.468750000       9.63834623E-07
  0.469999999       9.71242230E-07
  0.471249998       9.78206572E-07
  0.472499996       9.84719577E-07
  0.473749995       9.90775334E-07
  0.474999994       9.96370545E-07
  0.476249993       1.00150453E-06
  0.477499992       1.00617956E-06
  0.478749990       1.01040052E-06
  0.479999989       1.01417436E-06
  0.481249988       1.01750993E-06
  0.482499987       1.02041724E-06
  0.483749986       1.02290642E-06
  0.485000014       1.02498700E-06
  0.486250013       1.02666820E-06
  0.487500012       1.02795832E-06
  0.488750011       1.02886406E-06
  0.490000010       1.02939009E-06
  0.491250008       1.02953879E-06
  0.492500007       1.02931142E-06
  0.493750006       1.02870808E-06
  0.495000005       1.02772788E-06
  0.496250004       1.02636955E-06
  0.497500002       1.02463196E-06
  0.498750001       1.02251511E-06
  0.500000000       1.02002002E-06
  0.501250029       1.01714909E-06
  0.502499998       1.01390719E-06
  0.503750026       1.01030150E-06
  0.504999995       1.00634111E-06
  0.506250024       1.00203647E-06
  0.507499993       9.97399525E-07
  0.508750021       9.92443006E-07
  0.509999990       9.87180215E-07
  0.511250019       9.81624794E-07
  0.512499988       9.75789703E-07
  0.513750017       9.69686994E-07
  0.514999986       9.63328148E-07
  0.516250014       9.56723625E-07
  0.517499983       9.49882065E-07
  0.518750012       9.42811084E-07
  0.519999981       9.35517278E-07
  0.521250010       9.28006330E-07
  0.522499979       9.20283526E-07
  0.523750007       9.12354267E-07
  0.524999976       9.04223725E-07
  0.526250005       8.95897472E-07
  0.527499974       8.87381759E-07
  0.528750002       8.78683466E-07
  0.529999971       8.69809924E-07
  0.531250000       8.60769376E-07
  0.532500029       8.51571201E-07
  0.533749998       8.42225745E-07
  0.535000026       8.32743751E-07
  0.536249995       8.23136077E-07
  0.537500024       8.13413919E-07
  0.538749993       8.03588875E-07
  0.540000021       7.93672314E-07
  0.541249990       7.83675375E-07
  0.542500019       7.73609372E-07
  0.543749988       7.63485048E-07
  0.545000017       7.53312861E-07
  0.546249986       7.43103101E-07
  0.547500014       7.32866283E-07
  0.548749983       7.22612469E-07
  0.550000012       7.12350925E-07
  0.551249981       7.02091086E-07
  0.552500010       6.91842160E-07
  0.553749979       6.81613130E-07
  0.555000007       6.71412920E-07
  0.556249976       6.61250681E-07
  0.557500005       6.51135565E-07
  0.558749974       6.41076895E-07
  0.560000002       6.31083196E-07
  0.561249971       6.21162428E-07
  0.562500000       6.11323912E-07
  0.563750029       6.01576744E-07
  0.564999998       5.91930245E-07
  0.566250026       5.82394250E-07
  0.567499995       5.72978365E-07
  0.568750024       5.63692595E-07
  0.569999993       5.54547285E-07
  0.571250021       5.45552837E-07
  0.572499990       5.36719142E-07
  0.573750019       5.28055921E-07
  0.574999988       5.19572893E-07
  0.576250017       5.11278415E-07
  0.577499986       5.03179706E-07
  0.578750014       4.95283757E-07
  0.579999983       4.87596481E-07
  0.581250012       4.80122878E-07
  0.582499981       4.72867470E-07
  0.583750010       4.65834262E-07
  0.584999979       4.59026666E-07
  0.586250007       4.52448177E-07
  0.587499976       4.46102206E-07
  0.588750005       4.39992704E-07
  0.589999974       4.34124871E-07
  0.591250002       4.28504450E-07
  0.592499971       4.23137180E-07
  0.593750000       4.18029344E-07
  0.595000029       4.13188957E-07
  0.596249998       4.08625112E-07
  0.597500026       4.04346537E-07
  0.598749995       4.00361557E-07
  0.600000024       3.96679440E-07
  0.601249993       3.93309136E-07
  0.602500021       3.90258521E-07
  0.603749990       3.87534840E-07
  0.605000019       3.85145341E-07
  0.606249988       3.83096193E-07
  0.607500017       3.81392283E-07
  0.608749986       3.80036767E-07
  0.610000014       3.79032173E-07
  0.611249983       3.78380690E-07
  0.612500012       3.78083058E-07
  0.613749981       3.78139333E-07
  0.615000010       3.78550169E-07
  0.616249979       3.79316020E-07
  0.617500007       3.80436688E-07
  0.618749976       3.81912628E-07
  0.620000005       3.83744663E-07
  0.621249974       3.85934243E-07
  0.622500002       3.88482960E-07
  0.623749971       3.91393314E-07
  0.625000000       3.94668007E-07
  0.626250029       3.98310078E-07
  0.627499998       4.02323110E-07
  0.628750026       4.06710626E-07
  0.629999995       4.11476947E-07
  0.631250024       4.16626506E-07
  0.632499993       4.22162913E-07
  0.633750021       4.28089066E-07
  0.634999990       4.34407042E-07
  0.636250019       4.41117919E-07
  0.637499988       4.48221016E-07
  0.638750017       4.55714712E-07
  0.639999986       4.63596336E-07
  0.641250014       4.71861199E-07
  0.642499983       4.80502820E-07
  0.643750012       4.89513525E-07
  0.644999981       4.98884503E-07
  0.646250010       5.08605751E-07
  0.647499979       5.18667093E-07
  0.648750007       5.29058070E-07
  0.649999976       5.39768280E-07
  0.651250005       5.50787945E-07
  0.652499974       5.62108539E-07
  0.653750002       5.73722843E-07
  0.654999971       5.85625230E-07
  0.656250000       5.97811152E-07
  0.657500029       6.10277255E-07
  0.658749998       6.23021947E-07
  0.660000026       6.36043524E-07
  0.661249995       6.49341018E-07
  0.662500024       6.62914374E-07
  0.663749993       6.76763023E-07
  0.665000021       6.90885770E-07
  0.666249990       7.05280002E-07
  0.667500019       7.19941454E-07
  0.668749988       7.34863590E-07
  0.670000017       7.50038225E-07
  0.671249986       7.65455695E-07
  0.672500014       7.81104632E-07
  0.673749983       7.96972699E-07
  0.675000012       8.13046654E-07
  0.676249981       8.29312910E-07
  0.677500010       8.45757995E-07
  0.678749979       8.62368609E-07
  0.680000007       8.79132699E-07
  0.681249976       8.96039921E-07
  0.682500005       9.13080214E-07
  0.683749974       9.30245733E-07
  0.685000002       9.47529543E-07
  0.686249971       9.64923402E-07
  0.687500000       9.82419465E-07
  0.688750029       1.00000875E-06
  0.689999998       1.01767989E-06
  0.691250026       1.03541913E-06
  0.692499995       1.05320964E-06
  0.693750024       1.07103108E-06
  0.694999993       1.08885808E-06
  0.696250021       1.10665974E-06
  0.697499990       1.12440068E-06
  0.698750019       1.14204090E-06
  0.699999988       1.15953662E-06
  0.701250017       1.17683976E-06
  0.702499986       1.19389779E-06
  0.703750014       1.21065557E-06
  0.704999983       1.22705399E-06
  0.706250012       1.24303028E-06
  0.707499981       1.25851909E-06
  0.708750010       1.27345243E-06
  0.709999979       1.28775980E-06
  0.711250007       1.30136675E-06
  0.712499976       1.31419506E-06
  0.713750005       1.32616196E-06
  0.714999974       1.33717981E-06
  0.716250002       1.34715447E-06
  0.717499971       1.35598486E-06
  0.718750000       1.36356414E-06
  0.720000029       1.36977792E-06
  0.721249998       1.37450490E-06
  0.722500026       1.37761651E-06
  0.723749995       1.37897598E-06
  0.725000024       1.37843926E-06
  0.726249993       1.37585630E-06
  0.727500021       1.37107077E-06
  0.728749990       1.36392100E-06
  0.730000019       1.35424068E-06
  0.731249988       1.34185939E-06
  0.732500017       1.32660227E-06
  0.733749986       1.30829096E-06
  0.735000014       1.28674708E-06
  0.736249983       1.26179054E-06
  0.737500012       1.23324025E-06
  0.738749981       1.20091534E-06
  0.740000010       1.16463423E-06
  0.741249979       1.12421696E-06
  0.742500007       1.07948506E-06
  0.743749976       1.03026127E-06
  0.745000005       9.76369961E-07
  0.746249974       9.17635987E-07
  0.747500002       8.53886547E-07
  0.748749971       7.84952533E-07
  0.750000000       7.10667052E-07
  0.751250029       6.30866680E-07
  0.752499998       5.45392083E-07
  0.753750026       4.54090326E-07
  0.754999995       3.56817281E-07
  0.756250024       2.53435559E-07
  0.757499993       1.43815825E-07
  0.758750021       2.78401675E-08
  0.759999990      -9.45970555E-08
  0.761250019      -2.23590064E-07
  0.762499988      -3.59217751E-07
  0.763750017      -5.01541422E-07
  0.764999986      -6.50606012E-07
  0.766250014      -8.06438379E-07
  0.767499983      -9.69045118E-07
  0.768750012      -1.13841224E-06
  0.769999981      -1.31450452E-06
  0.771250010      -1.49726463E-06
  0.772499979      -1.68661518E-06
  0.773750007      -1.88245735E-06
  0.774999976      -2.08467100E-06
  0.776250005      -2.29311399E-06
  0.777499974      -2.50762287E-06
  0.778750002      -2.72801481E-06
  0.779999971      -2.95408495E-06
  0.781250000      -3.18560683E-06
  0.782500029      -3.42233420E-06
  0.783749998      -3.66399900E-06
  0.785000026      -3.91031062E-06
  0.786249995      -4.16095600E-06
  0.787500024      -4.41559996E-06
  0.788749993      -4.67388327E-06
  0.790000021      -4.93542075E-06
  0.791249990      -5.19980313E-06
  0.792500019      -5.46659658E-06
  0.793749988      -5.73534226E-06
  0.795000017      -6.00555904E-06
  0.796249986      -6.27674126E-06
  0.797500014      -6.54836185E-06
  0.798749983      -6.81987467E-06
  0.800000012      -7.09071446E-06
  0.801249981      -7.36030051E-06
  0.802500010      -7.62803984E-06
  0.803749979      -7.89332898E-06
  0.805000007      -8.15555359E-06
  0.806249976      -8.41409383E-06
  0.807500005      -8.66832488E-06
  0.808749974      -8.91761738E-06
  0.810000002      -9.16134195E-06
  0.811249971      -9.39886831E-06
  0.812500000      -9.62956619E-06
  0.813750029      -9.85280622E-06
  0.814999998      -1.00679608E-05
  0.816250026      -1.02744061E-05
  0.817499995      -1.04715227E-05
  0.818750024      -1.06586967E-05
  0.819999993      -1.08353215E-05
  0.821250021      -1.10007995E-05
  0.822499990      -1.11545451E-05
  0.823750019      -1.12959870E-05
  0.824999988      -1.14245704E-05
  0.826250017      -1.15397615E-05
  0.827499986      -1.16410502E-05
  0.828750014      -1.17279515E-05
  0.829999983      -1.18000107E-05
  0.831250012      -1.18568041E-05
  0.832499981      -1.18979406E-05
  0.833750010      -1.19230663E-05
  0.834999979      -1.19318647E-05
  0.836250007      -1.19240567E-05
  0.837499976      -1.18994012E-05
  0.838750005      -1.18576991E-05
  0.839999974      -1.17987902E-05
  0.841250002      -1.17225527E-05
  0.842499971      -1.16289057E-05
  0.843750000      -1.15178082E-05
  0.845000029      -1.13892593E-05
  0.846249998      -1.12432990E-05
  0.847500026      -1.10800092E-05
  0.848749995      -1.08995146E-05
  0.850000024      -1.07019814E-05
  0.851249993      -1.04876199E-05
  0.852500021      -1.02566864E-05
  0.853749990      -1.00094803E-05
  0.855000019      -9.74634531E-06
  0.856249988      -9.46767159E-06
  0.857500017      -9.17389480E-06
  0.858749986      -8.86549424E-06
  0.860000014      -8.54299196E-06
  0.861249983      -8.20695277E-06
  0.862500012      -7.85798056E-06
  0.863749981      -7.49671472E-06
  0.865000010      -7.12383189E-06
  0.866249979      -6.74004150E-06
  0.867500007      -6.34608523E-06
  0.868749976      -5.94273206E-06
  0.870000005      -5.53077598E-06