 -0.200000003       0.00000000    
 -0.198750004       0.00000000    
 -0.197500005       0.00000000    
 -0.196250007       0.00000000    
 -0.194999993       0.00000000    
 -0.193749994       0.00000000    
 -0.192499995       0.00000000    
 -0.191249996       0.00000000    
 -0.189999998       0.00000000    
 -0.188749999       0.00000000    
 -0.187500000       0.00000000    
 -0.186250001       0.00000000    
 -0.185000002       0.00000000    
 -0.183750004       0.00000000    
 -0.182500005       0.00000000    
 -0.181250006       0.00000000    
 -0.180000007       0.00000000    
 -0.178749993       0.00000000    
 -0.177499995       0.00000000    
 -0.176249996       0.00000000    
 -0.174999997       0.00000000    
 -0.173749998       0.00000000    
 -0.172499999       0.00000000    
 -0.171250001       0.00000000    
 -0.170000002       0.00000000    
 -0.168750003       0.00000000    
 -0.167500004       0.00000000    
 -0.166250005       0.00000000    
 -0.165000007       0.00000000    
 -0.163749993       0.00000000    
 -0.162499994       0.00000000    
 -0.161249995       0.00000000    
 -0.159999996       0.00000000    
 -0.158749998       0.00000000    
 -0.157499999       0.00000000    
 -0.156250000       0.00000000    
 -0.155000001       0.00000000    
 -0.153750002       0.00000000    
 -0.152500004       0.00000000    
 -0.151250005       0.00000000    
 -0.150000006       0.00000000    
 -0.148750007       0.00000000    
 -0.147499993       0.00000000    
 -0.146249995       0.00000000    
 -0.144999996       0.00000000    
 -0.143749997       0.00000000    
 -0.142499998       0.00000000    
 -0.141249999       0.00000000    
 -0.140000001       0.00000000    
 -0.138750002       0.00000000    
 -0.137500003       0.00000000    
 -0.136250004       0.00000000    
 -0.135000005       0.00000000    
 -0.133750007       0.00000000    
 -0.132499993       0.00000000    
 -0.131249994       0.00000000    
 -0.129999995       0.00000000    
 -0.128749996       0.00000000    
 -0.127499998       0.00000000    
 -0.126249999       0.00000000    
 -0.125000000       0.00000000    
 -0.123750001       0.00000000    
 -0.122500002       0.00000000    
 -0.121250004       0.00000000    
 -0.119999997       0.00000000    
 -0.118749999       0.00000000    
 -0.117500000       0.00000000    
 -0.116250001       0.00000000    
 -0.115000002       0.00000000    
 -0.113750003       0.00000000    
 -0.112499997       0.00000000    
 -0.111249998       0.00000000    
 -0.109999999       0.00000000    
 -0.108750001       0.00000000    
 -0.107500002       0.00000000    
 -0.106250003       0.00000000    
 -0.104999997       0.00000000    
 -0.103749998       0.00000000    
 -0.102499999       0.00000000    
 -0.101250000       0.00000000    
 -0.100000001       0.00000000    
  -9.87500027E-02   0.00000000    
  -9.74999964E-02   0.00000000    
  -9.62499976E-02   0.00000000    
  -9.49999988E-02   0.00000000    
  -9.37500000E-02   0.00000000    
  -9.25000012E-02   0.00000000    
  -9.12500024E-02   0.00000000    
  -9.00000036E-02   0.00000000    
  -8.87499973E-02   0.00000000    
  -8.74999985E-02   0.00000000    
  -8.62499997E-02   0.00000000    
  -8.50000009E-02   0.00000000    
  -8.37500021E-02   0.00000000    
  -8.25000033E-02   0.00000000    
  -8.12499970E-02   0.00000000    
  -7.99999982E-02   0.00000000    
  -7.87499994E-02   0.00000000    
  -7.75000006E-02   0.00000000    
  -7.62500018E-02   0.00000000    
  -7.50000030E-02   0.00000000    
  -7.37499967E-02   0.00000000    
  -7.24999979E-02   0.00000000    
  -7.12499991E-02   0.00000000    
  -7.00000003E-02   0.00000000    
  -6.87500015E-02   0.00000000    
  -6.75000027E-02   0.00000000    
  -6.62499964E-02   0.00000000    
  -6.49999976E-02   0.00000000    
  -6.37499988E-02   0.00000000    
  -6.25000000E-02   0.00000000    
  -6.12500012E-02   0.00000000    
  -5.99999987E-02   0.00000000    
  -5.87499999E-02   0.00000000    
  -5.75000010E-02   0.00000000    
  -5.62499985E-02   0.00000000    
  -5.49999997E-02   0.00000000    
  -5.37500009E-02   0.00000000    
  -5.24999984E-02   0.00000000    
  -5.12499996E-02   0.00000000    
  -5.00000007E-02   0.00000000    
  -4.87499982E-02   0.00000000    
  -4.74999994E-02   0.00000000    
  -4.62500006E-02   0.00000000    
  -4.50000018E-02   0.00000000    
  -4.37499993E-02   0.00000000    
  -4.25000004E-02   0.00000000    
  -4.12500016E-02   0.00000000    
  -3.99999991E-02   0.00000000    
  -3.87500003E-02   0.00000000    
  -3.75000015E-02   0.00000000    
  -3.62499990E-02   0.00000000    
  -3.50000001E-02   0.00000000    
  -3.37500013E-02   0.00000000    
  -3.24999988E-02   0.00000000    
  -3.12500000E-02   0.00000000    
  -2.99999993E-02   0.00000000    
  -2.87500005E-02   0.00000000    
  -2.74999999E-02   0.00000000    
  -2.62499992E-02   0.00000000    
  -2.50000004E-02   0.00000000    
  -2.37499997E-02   0.00000000    
  -2.25000009E-02   0.00000000    
  -2.12500002E-02   0.00000000    
  -1.99999996E-02   0.00000000    
  -1.87500007E-02   0.00000000    
  -1.75000001E-02   0.00000000    
  -1.62499994E-02   0.00000000    
  -1.49999997E-02   0.00000000    
  -1.37499999E-02   0.00000000    
  -1.25000002E-02   0.00000000    
  -1.12500004E-02   0.00000000    
  -9.99999978E-03   0.00000000    
  -8.75000004E-03   0.00000000    
  -7.49999983E-03   0.00000000    
  -6.25000009E-03   0.00000000    
  -4.99999989E-03   0.00000000    
  -3.74999992E-03   0.00000000    
  -2.49999994E-03   0.00000000    
  -1.24999997E-03   0.00000000    
   0.00000000       0.00000000    
   1.24999997E-03   0.00000000    
   2.49999994E-03   0.00000000    
   3.74999992E-03   0.00000000    
   4.99999989E-03   0.00000000    
   6.25000009E-03   0.00000000    
   7.49999983E-03   0.00000000    
   8.75000004E-03   0.00000000    
   9.99999978E-03   0.00000000    
   1.12500004E-02   0.00000000    
   1.25000002E-02   0.00000000    
   1.37499999E-02   0.00000000    
   1.49999997E-02   0.00000000    
   1.62499994E-02   0.00000000    
   1.75000001E-02   0.00000000    
   1.87500007E-02   0.00000000    
   1.99999996E-02   0.00000000    
   2.12500002E-02   0.00000000    
   2.25000009E-02   0.00000000    
   2.37499997E-02   0.00000000    
   2.50000004E-02   0.00000000    
   2.62499992E-02   0.00000000    
   2.74999999E-02   0.00000000    
   2.87500005E-02   0.00000000    
   2.99999993E-02   0.00000000    
   3.12500000E-02   0.00000000    
   3.24999988E-02   0.00000000    
   3.37500013E-02   0.00000000    
   3.50000001E-02   0.00000000    
   3.62499990E-02   0.00000000    
   3.75000015E-02   0.00000000    
   3.87500003E-02   0.00000000    
   3.99999991E-02   0.00000000    
   4.12500016E-02  -7.00649232E-45
   4.25000004E-02  -3.50324616E-44
   4.37499993E-02  -7.70714155E-44
   4.50000018E-02  -1.19110369E-43
   4.62500006E-02  -1.61149323E-43
   4.74999994E-02  -1.89175293E-43
   4.87499982E-02  -1.82168800E-43
   5.00000007E-02  -8.40779079E-44
   5.12499996E-02   1.06498683E-43
   5.24999984E-02   3.40515527E-43
   5.37500009E-02   6.16571324E-43
   5.49999997E-02   8.77212839E-43
   5.62499985E-02   1.03135567E-42
   5.75000010E-02   1.10982838E-42
   5.87499999E-02   8.49186869E-43
   5.99999987E-02  -4.49816807E-43
   6.12500012E-02  -2.72832811E-42
   6.25000000E-02  -5.31932897E-42
   6.37499988E-02  -7.06814945E-42
   6.49999976E-02  -7.98039475E-42
   6.62499964E-02  -7.82204803E-42
   6.75000027E-02  -5.35716403E-42
   6.87500015E-02  -8.95429719E-43
   7.00000003E-02   5.67666008E-42
   7.12499991E-02   1.45875170E-41
   7.24999979E-02   2.41205505E-41
   7.37499967E-02   3.16048856E-41
   7.50000030E-02   3.40711709E-41
   7.62500018E-02   3.00144118E-41
   7.75000006E-02   1.72289646E-41
   7.87499994E-02  -6.52164305E-42
   7.99999982E-02  -4.05563802E-41
   8.12499970E-02  -8.06461279E-41
   8.25000033E-02  -1.19635856E-40
   8.37500021E-02  -1.48639932E-40
   8.50000009E-02  -1.54738383E-40
   8.62499997E-02  -1.25985140E-40
   8.74999985E-02  -5.33782611E-41
   8.87499973E-02   6.66527615E-41
   9.00000036E-02   2.27802085E-40
   9.12500024E-02   4.10602871E-40
   9.25000012E-02   5.79932975E-40
   9.37500000E-02   6.88612078E-40
   9.49999988E-02   6.83899512E-40
   9.62499976E-02   5.15670828E-40
   9.74999964E-02   1.49340581E-40
   9.87500027E-02  -4.17329103E-40
  0.100000001      -1.13966483E-39
  0.101250000      -1.91557360E-39
  0.102499999      -2.58725659E-39
  0.103749998      -2.95307677E-39
  0.104999997      -2.79429424E-39
  0.106250003      -1.92173791E-39
  0.107500002      -2.33418489E-40
  0.108750001       2.22610554E-39
  0.109999999       5.21452726E-39
  0.111249998       8.26599059E-39
  0.112499997       1.07090438E-38
  0.113750003       1.17362586E-38
  0.115000002       1.05351300E-38
  0.116250001       6.47575333E-39
  0.117500000      -6.74718204E-40
  0.118749999      -1.05398566E-38
  0.119999997      -2.19780029E-38
  0.121250004      -3.30438313E-38
  0.122500002      -4.11175497E-38
  0.123750001      -4.32396285E-38
  0.125000000      -3.66512108E-38
  0.126249999      -1.94910065E-38
  0.127499998       8.44684217E-39
  0.128749996       4.50439180E-38
  0.129999995       8.54725810E-38
  0.131249994       1.22278324E-37
  0.132499993       1.46083728E-37
  0.133750007       1.46983362E-37
  0.135000005       1.16555388E-37
  0.136250004       5.02593575E-38
  0.137500003      -5.01832782E-38
  0.138750002      -1.74981384E-37
  0.140000001      -3.05641872E-37
  0.141249999      -4.16060984E-37
  0.142499998      -4.75689440E-37
  0.143749997      -4.54767045E-37
  0.144999996      -3.31135795E-37
  0.146249995      -9.76282734E-38
  0.147499993       2.31447378E-37
  0.148750007       6.16505273E-37
  0.150000006       9.93292995E-37
  0.151250005       1.27922595E-36
  0.152500004       1.38585342E-36
  0.153750002       1.23657931E-36
  0.155000001       7.87267235E-37
  0.156250000       4.59078829E-38
  0.157499999      -9.13484990E-37
  0.158749998      -1.94777742E-36
  0.159999996      -2.85651800E-36
  0.161249995      -3.41053500E-36
  0.162499994      -3.39581944E-36
  0.163749993      -2.66704325E-36
  0.165000007      -1.20093476E-36
  0.166250005       8.63377965E-37
  0.167500004       3.21093270E-36
  0.168750003       5.37616797E-36
  0.170000002       6.81285933E-36
  0.171250001       7.00564069E-36
  0.172499999       5.60850962E-36
  0.173749998       2.58400674E-36
  0.174999997      -1.69234273E-36
  0.176249996      -6.40104098E-36
  0.177499995      -1.03543675E-35
  0.178749993      -1.21963178E-35
  0.180000007      -1.07182642E-35
  0.181250006      -5.24872254E-36
  0.182500005       3.95888044E-36
  0.183750004       1.54441548E-35
  0.185000002       2.64783632E-35
  0.186250001       3.33246450E-35
  0.187500000       3.18757535E-35
  0.188749999       1.86490385E-35
  0.189999998      -7.98143876E-36
  0.191249996      -4.65429900E-35
  0.192499995      -9.15305679E-35
  0.193749994      -1.33144859E-34
  0.194999993      -1.58037926E-34
  0.196250007      -1.51280854E-34
  0.197500005      -9.95475541E-35
  0.198750004       4.79352591E-36
  0.200000003       1.59329328E-34
  0.201250002       3.47956177E-34
  0.202500001       5.39099847E-34
  0.203749999       6.86960092E-34
  0.204999998       7.36659167E-34
  0.206249997       6.33584981E-34
  0.207499996       3.36346839E-34
  0.208749995      -1.68294045E-34
  0.209999993      -8.51217887E-34
  0.211250007      -1.63098537E-33
  0.212500006      -2.37196154E-33
  0.213750005      -2.89392107E-33
  0.215000004      -2.99517522E-33
  0.216250002      -2.48897025E-33
  0.217500001      -1.24988404E-33
  0.218750000       7.36395140E-34
  0.219999999       3.32954697E-33
  0.221249998       6.20893986E-33
  0.222499996       8.87746117E-33
  0.223749995       1.07041147E-32
  0.224999994       1.10094663E-32
  0.226249993       9.19027124E-33
  0.227500007       4.87016567E-33
  0.228750005      -1.94641202E-33
  0.230000004      -1.07478968E-32
  0.231250003      -2.04517635E-32
  0.232500002      -2.94361682E-32
  0.233750001      -3.56907092E-32
  0.234999999      -3.70929564E-32
  0.236249998      -3.17938631E-32
  0.237499997      -1.86680993E-32
  0.238749996       2.24085260E-33
  0.239999995       2.93707255E-32
  0.241249993       5.94828471E-32
  0.242500007       8.77842372E-32
  0.243750006       1.08386680E-31
  0.245000005       1.15110167E-31
  0.246250004       1.02573002E-31
  0.247500002       6.74391218E-32
  0.248750001       9.62728110E-33
  0.250000000      -6.67590572E-32
  0.251249999      -1.53033366E-31
  0.252499998      -2.36277303E-31
  0.253749996      -3.00574493E-31
  0.254999995      -3.29127745E-31
  0.256249994      -3.07094467E-31
  0.257499993      -2.24799071E-31
  0.258749992      -8.08252812E-32
  0.259999990       1.15609717E-31
  0.261249989       3.43610470E-31
  0.262499988       5.71403196E-31
  0.263749987       7.59281095E-31
  0.264999986       8.64675965E-31
  0.266250014       8.48948227E-31
  0.267500013       6.85083092E-31
  0.268750012       3.65134782E-31
  0.270000011      -9.39533256E-32
  0.271250010      -6.47539683E-31
  0.272500008      -1.22464262E-30
  0.273750007      -1.73413666E-30
  0.275000006      -2.07575450E-30
  0.276250005      -2.15501649E-30
  0.277500004      -1.90035250E-30
  0.278750002      -1.27994699E-30
  0.280000001      -3.15396631E-31
  0.281250000       9.10761362E-31
  0.282499999       2.25612424E-30
  0.283749998       3.52959576E-30
  0.284999996       4.51274200E-30
  0.286249995       4.98973654E-30
  0.287499994       4.78258923E-30
  0.288749993       3.78689361E-30
  0.289999992       2.00240535E-30
  0.291249990      -4.47388025E-31
  0.292499989      -3.31176255E-30
  0.293749988      -6.22865906E-30
  0.294999987      -8.76080254E-30
  0.296249986      -1.04497957E-29
  0.297500014      -1.08827786E-29
  0.298750013      -9.76344242E-30
  0.300000012      -6.97723643E-30
  0.301250011      -2.63993669E-30
  0.302500010       2.88039694E-30
  0.303750008       8.97555501E-30
  0.305000007       1.48469563E-29
  0.306250006       1.95915931E-29
  0.307500005       2.23172293E-29
  0.308750004       2.22746557E-29
  0.310000002       1.89906157E-29
  0.311250001       1.23824845E-29
  0.312500000       2.83551186E-30
  0.313749999      -8.77422010E-30
  0.314999998      -2.11230580E-29
  0.316249996      -3.25539547E-29
  0.317499995      -4.12573074E-29
  0.318749994      -4.55044162E-29
  0.319999993      -4.39099990E-29
  0.321249992      -3.56921161E-29
  0.322499990      -2.08925904E-29
  0.323749989      -5.19577766E-31
  0.324999988       2.34226018E-29
  0.326249987       4.80423947E-29
  0.327499986       6.98204133E-29
  0.328750014       8.50119681E-29
  0.330000013       9.01631687E-29
  0.331250012       8.26876897E-29
  0.332500011       6.14305629E-29
  0.333750010       2.71304367E-29
  0.335000008      -1.73132736E-29
  0.336250007      -6.68534821E-29
  0.337500006      -1.14650008E-28
  0.338750005      -1.52786887E-28
  0.340000004      -1.73320189E-28
  0.341250002      -1.69561930E-28
  0.342500001      -1.37443702E-28
  0.343750000      -7.67519555E-29
  0.344999999       8.00241045E-30
  0.346249998       1.07313539E-28
  0.347499996       2.07196816E-28
  0.348749995       2.90589510E-28
  0.349999994       3.39603536E-28
  0.351249993       3.38441214E-28
  0.352499992       2.76621920E-28
  0.353749990       1.52027276E-28
  0.354999989      -2.68149483E-29
  0.356249988      -2.39793060E-28
  0.357499987      -4.56105759E-28
  0.358749986      -6.37264122E-28
  0.360000014      -7.42165626E-28
  0.361250013      -7.33826446E-28
  0.362500012      -5.86961625E-28
  0.363750011      -2.95260805E-28
  0.365000010       1.23009844E-28
  0.366250008       6.22468936E-28
  0.367500007       1.13231026E-27
  0.368750006       1.56290313E-27
  0.370000005       1.81726532E-27
  0.371250004       1.80649706E-27
  0.372500002       1.46735861E-27
  0.373750001       7.79381719E-28
  0.375000000      -2.21590879E-28
  0.376249999      -1.43660459E-27
  0.377499998      -2.70621507E-27
  0.378749996      -3.82415693E-27
  0.379999995      -4.56211319E-27
  0.381249994      -4.70373183E-27
  0.382499993      -4.08405000E-27
  0.383749992      -2.62875609E-27
  0.384999990      -3.86591027E-28
  0.386249989       2.45200618E-27
  0.387499988       5.55597856E-27
  0.388749987       8.47829876E-27
  0.389999986       1.07048232E-26
  0.391250014       1.17241008E-26
  0.392500013       1.11107607E-26
  0.393750012       8.61147912E-27
  0.395000011       4.22003838E-27
  0.396250010      -1.77272125E-27
  0.397500008      -8.76675607E-27
  0.398750007      -1.58873428E-26
  0.400000006      -2.20692143E-26
  0.401250005      -2.61858402E-26
  0.402500004      -2.72114549E-26
  0.403750002      -2.43961937E-26
  0.405000001      -1.74294210E-26
  0.406250000      -6.56411236E-27
  0.407499999       7.32308129E-27
  0.408749998       2.27555726E-26
  0.409999996       3.77740066E-26
  0.411249995       5.01437647E-26
  0.412499994       5.76356568E-26
  0.413749993       5.83492062E-26
  0.414999992       5.10374024E-26
  0.416249990       3.53858011E-26
  0.417499989       1.21992886E-26
  0.418749988      -1.65429417E-26
  0.419999987      -4.77897760E-26
  0.421249986      -7.76842733E-26
  0.422500014      -1.01977467E-25
  0.423750013      -1.16551351E-25
  0.425000012      -1.17992810E-25
  0.426250011      -1.04146896E-25
  0.427500010      -7.45724697E-26
  0.428750008      -3.08281665E-26
  0.430000007       2.34684640E-26
  0.431250006       8.28420246E-26
  0.432500005       1.40423651E-25
  0.433750004       1.88648505E-25
  0.435000002       2.20123772E-25
  0.436250001       2.28577402E-25
  0.437500000       2.09779291E-25
  0.438749999       1.62319471E-25
  0.439999998       8.81340795E-26
  0.441249996      -7.31139552E-27
  0.442499995      -1.15240980E-25
  0.443749994      -2.24208469E-25
  0.444999993      -3.21132603E-25
  0.446249992      -3.92653346E-25
  0.447499990      -4.26691117E-25
  0.448749989      -4.14054600E-25
  0.449999988      -3.49918138E-25
  0.451249987      -2.34981326E-25
  0.452499986      -7.61338966E-26
  0.453750014       1.13520794E-25
  0.455000013       3.15378011E-25
  0.456250012       5.06803935E-25
  0.457500011       6.63306642E-25
  0.458750010       7.61251562E-25
  0.460000008       7.80874724E-25
  0.461250007       7.09268932E-25
  0.462500006       5.42965023E-25
  0.463750005       2.89715380E-25
  0.465000004      -3.08780743E-26
  0.466250002      -3.88160438E-25
  0.467500001      -7.42771214E-25
  0.468750000      -1.05048012E-24
  0.469999999      -1.26723424E-24
  0.471249998      -1.35492373E-24
  0.472499996      -1.28718611E-24
  0.473749995      -1.05445134E-24
  0.474999994      -6.67404725E-25
  0.476249993      -1.58139211E-25
  0.477499992       4.21510075E-25
  0.478749990       1.00462067E-24
  0.479999989       1.51658085E-24
  0.481249988       1.88453309E-24
  0.482499987       2.04775137E-24
  0.483749986       1.96753092E-24
  0.485000014       1.63503827E-24
  0.486250013       1.07566075E-24
  0.487500012       3.48734822E-25
  0.488750011      -4.57893524E-25
  0.490000010      -1.23827703E-24
  0.491250008      -1.88271969E-24
  0.492500007      -2.29427060E-24
  0.493750006      -2.40496021E-24
  0.495000005      -2.18910163E-24
  0.496250004      -1.67109908E-24
  0.497500002      -9.25783098E-25
  0.498750001      -7.02820093E-26
  0.500000000       7.52257809E-25
  0.501250029       1.39534950E-24
  0.502499998       1.73514117E-24
  0.503750026       1.69557704E-24
  0.504999995       1.26818157E-24
  0.506250024       5.22185293E-25
  0.507499993      -3.98230322E-25
  0.508750021      -1.29100124E-24
  0.509999990      -1.92668548E-24
  0.511250019      -2.08901846E-24
  0.512499988      -1.61981612E-24
  0.513750017      -4.60855400E-25
  0.514999986       1.31529924E-24
  0.516250014       3.49292265E-24
  0.517499983       5.72459043E-24
  0.518750012       7.56859737E-24
  0.519999981       8.55031347E-24
  0.521250010       8.24101136E-24
  0.522499979       6.34362891E-24
  0.523750007       2.77203770E-24
  0.524999976      -2.29073611E-24
  0.526250005      -8.36874530E-24
  0.527499974      -1.47136616E-23
  0.528750002      -2.03737607E-23
  0.529999971      -2.43082392E-23
  0.531250000      -2.55359071E-23
  0.532500029      -2.33000955E-23
  0.533749998      -1.72262641E-23
  0.535000026      -7.44646198E-24
  0.536249995       5.33380491E-24
  0.537500024       1.98452618E-23
  0.538749993       3.43509008E-23
  0.540000021       4.68262469E-23
  0.541249990       5.52085314E-23
  0.542500019       5.76870693E-23
  0.543749988       5.29973417E-23
  0.545000017       4.06760349E-23
  0.546249986       2.12348529E-23
  0.547500014      -3.78194117E-24
  0.548749983      -3.18783898E-23
  0.550000012      -5.98303917E-23
  0.551249981      -8.40359765E-23
  0.552500010      -1.00956355E-22
  0.553749979      -1.07595162E-22
  0.555000007      -1.01952718E-22
  0.556249976      -8.33897732E-23
  0.557500005      -5.28422643E-23
  0.558749974      -1.28445709E-23
  0.560000002       3.26577528E-23
  0.561249971       7.86968523E-23
  0.562500000       1.19835305E-22
  0.563750029       1.50819565E-22
  0.564999998       1.67252875E-22
  0.566250026       1.66198617E-22
  0.567499995       1.46629716E-22
  0.568750024       1.09656235E-22
  0.569999993       5.84904326E-23
  0.571250021      -1.85716257E-24
  0.572499990      -6.51206823E-23
  0.573750019      -1.24496955E-22
  0.574999988      -1.73448854E-22
  0.576250017      -2.06489933E-22
  0.577499986      -2.19846573E-22
  0.578750014      -2.11908764E-22
  0.579999983      -1.83408557E-22
  0.581250012      -1.37302212E-22
  0.582499981      -7.83731921E-23
  0.583750010      -1.26123665E-23
  0.584999979       5.35370172E-23
  0.586250007       1.13963163E-22
  0.587499976       1.63588396E-22
  0.588750005       1.98893746E-22
  0.589999974       2.18195569E-22
  0.591250002       2.21642121E-22
  0.592499971       2.10940926E-22
  0.593750000       1.88868825E-22
  0.595000029       1.58650821E-22
  0.596249998       1.23314737E-22
  0.597500026       8.51339257E-23
  0.598749995       4.52582281E-23
  0.600000024       3.60572266E-24
  0.601249993      -4.09516502E-23
  0.602500021      -9.01219121E-23
  0.603749990      -1.45506341E-22
  0.605000019      -2.07792740E-22
  0.606249988      -2.75958489E-22
  0.607500017      -3.46626113E-22
  0.608749986      -4.13709254E-22
  0.610000014      -4.68462764E-22
  0.611249983      -5.00009981E-22
  0.612500012      -4.96365721E-22
  0.613749981      -4.45909471E-22
  0.615000010      -3.39196785E-22
  0.616249979      -1.70933928E-22
  0.617500007       5.81136600E-23
  0.618749976       3.39543000E-22
  0.620000005       6.56342825E-22
  0.621249974       9.82790128E-22
  0.622500002       1.28542353E-21
  0.623749971       1.52521604E-21
  0.625000000       1.66095040E-21
  0.626250029       1.65365279E-21
  0.627499998       1.47177635E-21
  0.628750026       1.09666085E-21
  0.629999995       5.27653131E-22
  0.631250024      -2.13825734E-22
  0.632499993      -1.08201010E-21
  0.633750021      -2.00699684E-21
  0.634999990      -2.89794428E-21
  0.636250019      -3.64950551E-21
  0.637499988      -4.15137150E-21
  0.638750017      -4.30036822E-21
  0.639999986      -4.01410112E-21
  0.641250014      -3.24473530E-21
  0.642499983      -1.99118953E-21
  0.643750012      -3.07893749E-22
  0.644999981       1.69164837E-21
  0.646250010       3.83790398E-21
  0.647499979       5.91577158E-21
  0.648750007       7.68243671E-21
  0.649999976       8.89163825E-21
  0.651250005       9.32234489E-21
  0.652499974       8.80894200E-21
  0.653750002       7.26935127E-21
  0.654999971       4.72721401E-21
  0.656250000       1.32445137E-21
  0.657500029      -2.67879776E-21
  0.658749998      -6.91864689E-21
  0.660000026      -1.09565177E-20
  0.661249995      -1.43210830E-20
  0.662500024      -1.65595258E-20
  0.663749993      -1.72928779E-20
  0.665000021      -1.62689996E-20
  0.666249990      -1.34063391E-20
  0.667500019      -8.82196847E-21
  0.668749988      -2.83869221E-21
  0.670000017       4.03183663E-21
  0.671249986       1.11303081E-20
  0.672500014       1.77124815E-20
  0.673749983       2.30276452E-20
  0.675000012       2.64044711E-20
  0.676249981       2.73342544E-20
  0.677500010       2.55410238E-20
  0.678749979       2.10288957E-20
  0.680000007       1.40992241E-20
  0.681249976       5.33347278E-21
  0.682500005      -4.45809516E-21
  0.683749974      -1.43174447E-20
  0.685000002      -2.32409043E-20
  0.686249971      -3.02906335E-20
  0.687500000      -3.47018746E-20
  0.688750029      -3.59723885E-20
  0.689999998      -3.39223021E-20
  0.691250026      -2.87161501E-20
  0.692499995      -2.08436735E-20
  0.693750024      -1.10614178E-20
  0.694999993      -3.02597274E-22
  0.696250021       1.04328381E-20
  0.697499990       2.01930507E-20
  0.698750019       2.81783922E-20
  0.699999988       3.38204716E-20
  0.701250017       3.68256964E-20
  0.702499986       3.71780753E-20
  0.703750014       3.51024950E-20
  0.704999983       3.09959827E-20
  0.706250012       2.53398073E-20
  0.707499981       1.86086460E-20
  0.708750010       1.11938725E-20
  0.709999979       3.35592365E-21
  0.711250007      -4.78415134E-21
  0.712499976      -1.32107772E-20
  0.713750005      -2.19424618E-20
  0.714999974      -3.09356986E-20
  0.716250002      -3.99832322E-20
  0.717499971      -4.86293957E-20
  0.718750000      -5.61250964E-20
  0.720000029      -6.14408498E-20
  0.721249998      -6.33484511E-20
  0.722500026      -6.05708626E-20
  0.723749995      -5.19876617E-20
  0.725000024      -3.68715047E-20
  0.726249993      -1.51213608E-20
  0.727500021       1.25469946E-20
  0.728749990       4.44926008E-20
  0.730000019       7.81559728E-20
  0.731249988       1.10201279E-19
  0.732500017       1.36797243E-19
  0.733749986       1.54019776E-19
  0.735000014       1.58339068E-19
  0.736249983       1.47136251E-19
  0.737500012       1.19182987E-19
  0.738749981       7.50133844E-20
  0.740000010       1.71232316E-20
  0.741249979      -5.00531254E-20
  0.742500007      -1.20414013E-19
  0.743749976      -1.86705599E-19
  0.745000005      -2.41243917E-19
  0.746249974      -2.76775589E-19
  0.747500002      -2.87383715E-19
  0.748749971      -2.69329697E-19
  0.750000000      -2.21719404E-19
  0.751250029      -1.46893163E-19
  0.752499998      -5.04649062E-20
  0.753750026       5.90270657E-20
  0.754999995       1.70849735E-19
  0.756250024       2.73129558E-19
  0.757499993       3.54130186E-19
  0.758750021       4.03617015E-19
  0.759999990       4.14150669E-19
  0.761250019       3.82147517E-19
  0.762499988       3.08562383E-19
  0.763750017       1.99083930E-19
  0.764999986       6.37845950E-20
  0.766250014      -8.37707197E-20
  0.767499983      -2.27886992E-19
  0.768750012      -3.52440669E-19
  0.769999981      -4.42738703E-19
  0.771250010      -4.87322084E-19
  0.772499979      -4.79494164E-19
  0.773750007      -4.18372444E-19
  0.774999976      -3.09307078E-19
  0.776250005      -1.63575418E-19
  0.777499974       2.65634877E-21
  0.778750002       1.70026161E-19
  0.779999971       3.18160909E-19
  0.781250000       4.28120225E-19
  0.782500029       4.84819242E-19
  0.783749998       4.79133978E-19
  0.785000026       4.09410227E-19
  0.786249995       2.82149834E-19
  0.787500024       1.11730633E-19
  0.788749993      -8.08764599E-20
  0.790000021      -2.70311483E-19
  0.791249990      -4.29750314E-19
  0.792500019      -5.34247317E-19
  0.793749988      -5.64117687E-19
  0.795000017      -5.07944938E-19
  0.796249986      -3.64811000E-19
  0.797500014      -1.45405841E-19
  0.798749983       1.28219780E-19
  0.800000012       4.24350582E-19
  0.801249981       7.04676818E-19
  0.802500010       9.28489351E-19
  0.803749979       1.05759126E-18
  0.805000007       1.06139442E-18
  0.806249976       9.21596455E-19
  0.807500005       6.35828249E-19
  0.808749974       2.19730629E-19
  0.810000002      -2.92945807E-19
  0.811249971      -8.52420375E-19
  0.812500000      -1.39710392E-18
  0.813750029      -1.85966394E-18
  0.814999998      -2.17438796E-18
  0.816250026      -2.28509327E-18
  0.817499995      -2.15270094E-18
  0.818750024      -1.76155246E-18
  0.819999993      -1.12361454E-18
  0.821250021      -2.79894758E-19
  0.822499990       7.01337128E-19
  0.823750019       1.72958803E-18
  0.824999988       2.70012845E-18
  0.826250017       3.50424727E-18
  0.827499986       4.04078060E-18
  0.828750014       4.22770398E-18
  0.829999983       4.01248110E-18
  0.831250012       3.37992574E-18
  0.832499981       2.35654037E-18
  0.833750010       1.01063552E-18
  0.834999979      -5.52017121E-19
  0.836250007      -2.19675472E-18
  0.837499976      -3.77207801E-18
  0.838750005      -5.12403069E-18
  0.839999974      -6.11143412E-18
  0.841250002      -6.62036981E-18
  0.842499971      -6.57634106E-18
  0.843750000      -5.95277509E-18
  0.845000029      -4.77491332E-18
  0.846249998      -3.11864813E-18
  0.847500026      -1.10442415E-18
  0.848749995       1.11312878E-18
  0.850000024       3.35870050E-18
  0.851249993       5.45149578E-18
  0.852500021       7.22053319E-18
  0.853749990       8.51852681E-18
  0.855000019       9.23307768E-18
  0.856249988       9.29431138E-18
  0.857500017       8.67857467E-18
  0.858749986       7.40830401E-18
  0.860000014       5.54863160E-18
  0.861249983       3.20159470E-18
  0.862500012       4.98955035E-19
  0.863749981      -2.40541165E-18
  0.865000010      -5.34282741E-18
  0.866249979      -8.13645208E-18
  0.867500007      -1.06072877E-17
  0.868749976      -1.25799671E-17
  0.870000005      -1.38890160E-17