 -0.200000003       0.00000000    
 -0.198750004       0.00000000    
 -0.197500005       0.00000000    
 -0.196250007       0.00000000    
 -0.194999993       0.00000000    
 -0.193749994       0.00000000    
 -0.192499995       0.00000000    
 -0.191249996       0.00000000    
 -0.189999998      -2.58992514E-30
 -0.188749999      -5.86020820E-29
 -0.187500000      -6.15298458E-28
 -0.186250001      -4.15740790E-27
 -0.185000002      -2.06300423E-26
 -0.183750004      -8.04514987E-26
 -0.182500005      -2.55710125E-25
 -0.181250006      -6.72577236E-25
 -0.180000007      -1.45247436E-24
 -0.178749993      -2.43972195E-24
 -0.177499995      -2.48361812E-24
 -0.176249996       1.96905875E-24
 -0.174999997       1.89791761E-23
 -0.173749998       6.32147439E-23
 -0.172499999       1.55991463E-22
 -0.171250001       3.19336776E-22
 -0.170000002       5.58487823E-22
 -0.168750003       8.27267804E-22
 -0.167500004       9.74768637E-22
 -0.166250005       6.82003953E-22
 -0.165000007      -5.85282588E-22
 -0.163749993      -3.55895589E-21
 -0.162499994      -9.01723561E-21
 -0.161249995      -1.74273174E-20
 -0.159999996      -2.83396505E-20
 -0.158749998      -3.95735645E-20
 -0.157499999      -4.63742784E-20
 -0.156250000      -4.09040167E-20
 -0.155000001      -1.26087262E-20
 -0.153750002       4.99102816E-20
 -0.152500004       1.55001278E-19
 -0.151250005       3.01943051E-19
 -0.150000006       4.73482474E-19
 -0.148750007       6.28703433E-19
 -0.147499993       6.99194317E-19
 -0.146249995       5.92377279E-19
 -0.144999996       2.05937755E-19
 -0.143749997      -5.44035707E-19
 -0.142499998      -1.68171733E-18
 -0.141249999      -3.12242959E-18
 -0.140000001      -4.62724049E-18
 -0.138750002      -5.77857374E-18
 -0.137500003      -5.99754913E-18
 -0.136250004      -4.62244284E-18
 -0.135000005      -1.05919474E-18
 -0.133750007       5.00144624E-18
 -0.132499993       1.33291520E-17
 -0.131249994       2.29173234E-17
 -0.129999995       3.18437868E-17
 -0.128749996       3.73197919E-17
 -0.127499998       3.60085981E-17
 -0.126249999       2.46573524E-17
 -0.125000000       1.01791264E-18
 -0.123750001      -3.50593422E-17
 -0.122500002      -8.05755377E-17
 -0.121250004      -1.28678770E-16
 -0.119999997      -1.68645226E-16
 -0.118749999      -1.86850836E-16
 -0.117500000      -1.68904497E-16
 -0.116250001      -1.02885082E-16
 -0.115000002       1.66840576E-17
 -0.113750003       1.84819280E-16
 -0.112499997       3.82996747E-16
 -0.111249998       5.78123068E-16
 -0.109999999       7.24580835E-16
 -0.108750001       7.70002183E-16
 -0.107500002       6.64757651E-16
 -0.106250003       3.74257378E-16
 -0.104999997      -1.07803921E-16
 -0.103749998      -7.47982979E-16
 -0.102499999      -1.46661118E-15
 -0.101250000      -2.13940490E-15
 -0.100000001      -2.60941078E-15
  -9.87500027E-02  -2.70991145E-15
  -9.74999964E-02  -2.29667330E-15
  -9.62499976E-02  -1.28536212E-15
  -9.49999988E-02   3.12369446E-16
  -9.37500000E-02   2.36220591E-15
  -9.25000012E-02   4.59821576E-15
  -9.12500024E-02   6.63846021E-15
  -9.00000036E-02   8.02861873E-15
  -8.87499973E-02   8.31220367E-15
  -8.74999985E-02   7.11999802E-15
  -8.62499997E-02   4.26558211E-15
  -8.50000009E-02  -1.70637871E-16
  -8.37500021E-02  -5.78848128E-15
  -8.25000033E-02  -1.18639416E-14
  -8.12499970E-02  -1.74064356E-14
  -7.99999982E-02  -2.12802578E-14
  -7.87499994E-02  -2.23813921E-14
  -7.75000006E-02  -1.98481182E-14
  -7.62500018E-02  -1.32727852E-14
  -7.50000030E-02  -2.87531750E-15
  -7.37499967E-02   1.04017586E-14
  -7.24999979E-02   2.49100362E-14
  -7.12499991E-02   3.84423938E-14
  -7.00000003E-02   4.85087671E-14
  -6.87500015E-02   5.27144551E-14
  -6.75000027E-02   4.91919941E-14
  -6.62499964E-02   3.70188804E-14
  -6.49999976E-02   1.65450082E-14
  -6.37499988E-02  -1.04426254E-14
  -6.25000000E-02  -4.07734624E-14
  -6.12500012E-02  -7.01904423E-14
  -5.99999987E-02  -9.38772850E-14
  -5.87499999E-02  -1.07160462E-13
  -5.75000010E-02  -1.06292484E-13
  -5.62499985E-02  -8.91960591E-14
  -5.49999997E-02  -5.60390120E-14
  -5.37500009E-02  -9.52147873E-15
  -5.24999984E-02   4.52091909E-14
  -5.12499996E-02   1.01049411E-13
  -5.00000007E-02   1.49804946E-13
  -4.87499982E-02   1.83335010E-13
  -4.74999994E-02   1.94821400E-13
  -4.62500006E-02   1.79971869E-13
  -4.50000018E-02   1.37957476E-13
  -4.37499993E-02   7.19061312E-14
  -4.25000004E-02  -1.11713210E-14
  -4.12500016E-02  -1.01065999E-13
  -3.99999991E-02  -1.85616984E-13
  -3.87500003E-02  -2.52372044E-13
  -3.75000015E-02  -2.90438951E-13
  -3.62499990E-02  -2.92251303E-13
  -3.50000001E-02  -2.54964127E-13
  -3.37500013E-02  -1.81229015E-13
  -3.24999988E-02  -7.91776787E-14
  -3.12500000E-02   3.84449417E-14
  -2.99999993E-02   1.55924630E-13
  -2.87500005E-02   2.56796402E-13
  -2.74999999E-02   3.26326395E-13
  -2.62499992E-02   3.53879388E-13
  -2.50000004E-02   3.34783443E-13
  -2.37499997E-02   2.71355123E-13
  -2.25000009E-02   1.72855938E-13
  -2.12500002E-02   5.43107937E-14
  -1.99999996E-02  -6.57038036E-14
  -1.87500007E-02  -1.68013891E-13
  -1.75000001E-02  -2.36108279E-13
  -1.62499994E-02  -2.59180942E-13
  -1.49999997E-02  -2.34418550E-13
  -1.37499999E-02  -1.68071666E-13
  -1.25000002E-02  -7.50067055E-14
  -1.12500004E-02   2.33403994E-14
  -9.99999978E-03   1.02426009E-13
  -8.75000004E-03   1.39033885E-13
  -7.49999983E-03   1.16028742E-13
  -6.25000009E-03   2.66354897E-14
  -4.99999989E-03  -1.22562889E-13
  -3.74999992E-03  -3.10603350E-13
  -2.49999994E-03  -5.03559976E-13
  -1.24999997E-03  -6.58512849E-13
   0.00000000      -7.29780982E-13
   1.24999997E-03  -6.76718122E-13
   2.49999994E-03  -4.72011753E-13
   3.74999992E-03  -1.09203885E-13
   4.99999989E-03   3.91934396E-13
   6.25000009E-03   9.83371587E-13
   7.49999983E-03   1.59100673E-12
   8.75000004E-03   2.12141762E-12
   9.99999978E-03   2.47284398E-12
   1.12500004E-02   2.54940253E-12
   1.25000002E-02   2.27687986E-12
   1.37499999E-02   1.61798103E-12
   1.49999997E-02   5.84666755E-13
   1.62499994E-02  -7.54687166E-13
   1.75000001E-02  -2.27514253E-12
   1.87500007E-02  -3.80316958E-12
   1.99999996E-02  -5.13278959E-12
   2.12500002E-02  -6.04882854E-12
   2.25000009E-02  -6.35504366E-12
   2.37499997E-02  -5.90391104E-12
   2.50000004E-02  -4.62418905E-12
   2.62499992E-02  -2.54218326E-12
   2.74999999E-02   2.07034802E-13
   2.87500005E-02   3.38135444E-12
   2.99999993E-02   6.64771623E-12
   3.12500000E-02   9.61236299E-12
   3.24999988E-02   1.18630097E-11
   3.37500013E-02   1.30189245E-11
   3.50000001E-02   1.27833829E-11
   3.62499990E-02   1.09919435E-11
   3.75000015E-02   7.64988854E-12
   3.87500003E-02   2.95277648E-12
   3.99999991E-02  -2.71448706E-12
   4.12500016E-02  -8.80221937E-12
   4.25000004E-02  -1.46437949E-11
   4.37499993E-02  -1.95231747E-11
   4.50000018E-02  -2.27558094E-11
   4.62500006E-02  -2.37743263E-11
   4.74999994E-02  -2.22088910E-11
   4.87499982E-02  -1.79519195E-11
   5.00000007E-02  -1.11977511E-11
   5.12499996E-02  -2.45016962E-12
   5.24999984E-02   7.50617103E-12
   5.37500009E-02   1.76701258E-11
   5.49999997E-02   2.69197650E-11
   5.62499985E-02   3.41306913E-11
   5.75000010E-02   3.83049044E-11
   5.87499999E-02   3.86958972E-11
   5.99999987E-02   3.49151159E-11
   6.12500012E-02   2.70058628E-11
   6.25000000E-02   1.54736744E-11
   6.37499988E-02   1.26649841E-12
   6.49999976E-02  -1.42967504E-11
   6.62499964E-02  -2.96446305E-11
   6.75000027E-02  -4.31084023E-11
   6.87500015E-02  -5.30988205E-11
   7.00000003E-02  -5.82860982E-11
   7.12499991E-02  -5.77629646E-11
   7.24999979E-02  -5.11716503E-11
   7.37499967E-02  -3.87784457E-11
   7.50000030E-02  -2.14846335E-11
   7.62500018E-02  -7.68980908E-13
   7.75000006E-02   2.14356241E-11
   7.87499994E-02   4.29214476E-11
   7.99999982E-02   6.14244697E-11
   8.12499970E-02   7.48603193E-11
   8.25000033E-02   8.15534862E-11
   8.37500021E-02   8.04341524E-11
   8.50000009E-02   7.11805892E-11
   8.62499997E-02   5.42895208E-11
   8.74999985E-02   3.10634921E-11
   8.87499973E-02   3.51367243E-12
   9.00000036E-02  -2.58153447E-11
   9.12500024E-02  -5.40834322E-11
   9.25000012E-02  -7.84325521E-11
   9.37500000E-02  -9.62768198E-11
   9.49999988E-02  -1.05575347E-10
   9.62499976E-02  -1.05058622E-10
   9.74999964E-02  -9.43839035E-11
   9.87500027E-02  -7.42012007E-11
  0.100000001      -4.61206212E-11
  0.101250000      -1.25814975E-11
  0.102499999       2.33655421E-11
  0.103749998       5.83441628E-11
  0.104999997       8.89770688E-11
  0.106250003       1.12218873E-10
  0.107500002       1.25662758E-10
  0.108750001       1.27789848E-10
  0.109999999       1.18134627E-10
  0.111249998       9.73490039E-11
  0.112499997       6.71567038E-11
  0.113750003       3.02012096E-11
  0.115000002      -1.01981600E-11
  0.116250001      -5.03594041E-11
  0.117500000      -8.65879451E-11
  0.118749999      -1.15530460E-10
  0.119999997      -1.34495512E-10
  0.121250004      -1.41710435E-10
  0.122500002      -1.36487807E-10
  0.123750001      -1.19285734E-10
  0.125000000      -9.16569112E-11
  0.126249999      -5.60919713E-11
  0.127499998      -1.57744096E-11
  0.128749996       2.57271929E-11
  0.129999995       6.47978476E-11
  0.131249994       9.81114495E-11
  0.132499993       1.22928875E-10
  0.133750007       1.37330716E-10
  0.135000005       1.40362874E-10
  0.136250004       1.32084441E-10
  0.137500003       1.13516564E-10
  0.138750002       8.65025968E-11
  0.140000001       5.34982753E-11
  0.141249999       1.73172813E-11
  0.142499998      -1.91380887E-11
  0.143749997      -5.31330605E-11
  0.144999996      -8.23175347E-11
  0.146249995      -1.04884601E-10
  0.147499993      -1.19659352E-10
  0.148750007      -1.26117283E-10
  0.150000006      -1.24337221E-10
  0.151250005      -1.14905571E-10
  0.152500004      -9.87895876E-11
  0.153750002      -7.72024805E-11
  0.155000001      -5.14798239E-11
  0.156250000      -2.29840782E-11
  0.157499999       6.95298506E-12
  0.158749998       3.70490617E-11
  0.159999996       6.60564381E-11
  0.161249995       9.27270066E-11
  0.162499994       1.15775604E-10
  0.163749993       1.33860312E-10
  0.165000007       1.45597506E-10
  0.166250005       1.49625132E-10
  0.167500004       1.44716114E-10
  0.168750003       1.29939781E-10
  0.170000002       1.04850892E-10
  0.171250001       6.96862776E-11
  0.172499999       2.55338632E-11
  0.173749998      -2.55575665E-11
  0.174999997      -8.05596909E-11
  0.176249996      -1.35559813E-10
  0.177499995      -1.85983368E-10
  0.178749993      -2.26938093E-10
  0.180000007      -2.53659538E-10
  0.181250006      -2.62020711E-10
  0.182500005      -2.49054277E-10
  0.183750004      -2.13425666E-10
  0.185000002      -1.55796182E-10
  0.186250001      -7.90173205E-11
  0.187500000       1.18886880E-11
  0.188749999       1.09983730E-10
  0.189999998       2.06906728E-10
  0.191249996       2.93572694E-10
  0.192499995       3.61023406E-10
  0.193749994       4.01351147E-10
  0.194999993       4.08597933E-10
  0.196250007       3.79532683E-10
  0.197500005       3.14206716E-10
  0.198750004       2.16208426E-10
  0.200000003       9.25667737E-11
  0.201250002      -4.67134768E-11
  0.202500001      -1.89465915E-10
  0.203749999      -3.22454896E-10
  0.204999998      -4.32653025E-10
  0.206249997      -5.08574460E-10
  0.207499996      -5.41521883E-10
  0.208749995      -5.26611255E-10
  0.209999993      -4.63445199E-10
  0.211250007      -3.56349950E-10
  0.212500006      -2.14123455E-10
  0.213750005      -4.93017988E-11
  0.215000004       1.22998126E-10
  0.216250002       2.86553642E-10
  0.217500001       4.25675578E-10
  0.218750000       5.26844179E-10
  0.219999999       5.80157533E-10
  0.221249998       5.80427484E-10
  0.222499996       5.27795585E-10
  0.223749995       4.27778701E-10
  0.224999994       2.90730467E-10
  0.226249993       1.30762137E-10
  0.227500007      -3.57662719E-11
  0.228750005      -1.92026645E-10
  0.230000004      -3.22574661E-10
  0.231250003      -4.15058238E-10
  0.232500002      -4.61589378E-10
  0.233750001      -4.59605937E-10
  0.234999999      -4.12116424E-10
  0.236249998      -3.27291694E-10
  0.237499997      -2.17425272E-10
  0.238749996      -9.74059097E-11
  0.239999995       1.71617373E-11
  0.241249993       1.11920008E-10
  0.242500007       1.75604045E-10
  0.243750006       2.01509559E-10
  0.245000005       1.88403501E-10
  0.246250004       1.40740697E-10
  0.247500002       6.81462664E-11
  0.248750001      -1.57990825E-11
  0.250000000      -9.53593662E-11
  0.251249999      -1.54774374E-10
  0.252499998      -1.80509274E-10
  0.253749996      -1.63298028E-10
  0.254999995      -9.97547045E-11
  0.256249994       6.73101505E-12
  0.257499993       1.45928297E-10
  0.258749992       3.01609515E-10
  0.259999990       4.53199422E-10
  0.261249989       5.78169124E-10
  0.262499988       6.54802323E-10
  0.263749987       6.65097977E-10
  0.264999986       5.97421779E-10
  0.266250014       4.48550280E-10
  0.267500013       2.24891633E-10
  0.268750012      -5.74074364E-11
  0.270000011      -3.73543363E-10
  0.271250010      -6.92159330E-10
  0.272500008      -9.78447101E-10
  0.273750007      -1.19784171E-09
  0.275000006      -1.31991607E-09
  0.276250005      -1.32217048E-09
  0.277500004      -1.19302235E-09
  0.278750002      -9.33963018E-10
  0.280000001      -5.60257285E-10
  0.281250000      -1.00257219E-10
  0.282499999       4.06849943E-10
  0.283749998       9.14401665E-10
  0.284999996       1.37274014E-09
  0.286249995       1.73421921E-09
  0.287499994       1.95812055E-09
  0.288749993       2.01528771E-09
  0.289999992       1.89147897E-09
  0.291249990       1.58949454E-09
  0.292499989       1.12970189E-09
  0.293749988       5.48436130E-10
  0.294999987      -1.04685566E-10
  0.296249986      -7.71562148E-10
  0.297500014      -1.39086143E-09
  0.298750013      -1.90384797E-09
  0.300000012      -2.26038943E-09
  0.301250011      -2.42375453E-09
  0.302500010      -2.37428388E-09
  0.303750008      -2.11192219E-09
  0.305000007      -1.65616554E-09
  0.306250006      -1.04459619E-09
  0.307500005      -3.29296423E-10
  0.308750004       4.27629043E-10
  0.310000002       1.16022258E-09
  0.311250001       1.80461590E-09
  0.312500000       2.30477259E-09
  0.313749999       2.61831135E-09
  0.314999998       2.71961520E-09
  0.316249996       2.60170285E-09
  0.317499995       2.27778818E-09
  0.318749994       1.77831805E-09
  0.319999993       1.14910714E-09
  0.321249992       4.45850079E-10
  0.322499990      -2.70943296E-10
  0.323749989      -9.41097533E-10
  0.324999988      -1.51025625E-09
  0.326249987      -1.93479099E-09
  0.327499986      -2.18549290E-09
  0.328750014      -2.24834151E-09
  0.330000013      -2.12696971E-09
  0.331250012      -1.83952920E-09
  0.332500011      -1.41717771E-09
  0.333750010      -9.01700548E-10
  0.335000008      -3.38240408E-10
  0.336250007       2.26839506E-10
  0.337500006       7.48455353E-10
  0.338750005       1.19002130E-09
  0.340000004       1.52479906E-09
  0.341250002       1.73621550E-09
  0.342500001       1.82046744E-09
  0.343750000       1.78408111E-09
  0.344999999       1.64335989E-09
  0.346249998       1.42040546E-09
  0.347499996       1.14440923E-09
  0.348749995       8.38435266E-10
  0.349999994       5.31334532E-10
  0.351249993       2.46253379E-10
  0.352499992       3.02828292E-12
  0.353749990      -1.90101046E-10
  0.354999989      -3.28932548E-10
  0.356249988      -4.13583612E-10
  0.357499987      -4.56777727E-10
  0.358749986      -4.62341332E-10
  0.360000014      -4.47857196E-10
  0.361250013      -4.26400998E-10
  0.362500012      -4.05555145E-10
  0.363750011      -3.97573641E-10
  0.365000010      -4.03019840E-10
  0.366250008      -4.27809510E-10
  0.367500007      -4.62036132E-10
  0.368750006      -5.02741904E-10
  0.370000005      -5.35043565E-10
  0.371250004      -5.51006629E-10
  0.372500002      -5.27531574E-10
  0.373750001      -4.58186239E-10
  0.375000000      -3.39073769E-10
  0.376249999      -1.69208245E-10
  0.377499998       4.76074215E-11
  0.378749996       3.03391673E-10
  0.379999995       5.90632543E-10
  0.381249994       8.60642668E-10
  0.382499993       1.11248311E-09
  0.383749992       1.30587063E-09
  0.384999990       1.41892653E-09
  0.386249989       1.43399759E-09
  0.387499988       1.32314837E-09
  0.388749987       1.09882059E-09
  0.389999986       7.54300677E-10
  0.391250014       3.00903330E-10
  0.392500013      -2.33529918E-10
  0.393750012      -7.92001575E-10
  0.395000011      -1.34953426E-09
  0.396250010      -1.85377858E-09
  0.397500008      -2.21952012E-09
  0.398750007      -2.45746334E-09
  0.400000006      -2.50122079E-09
  0.401250005      -2.33018138E-09
  0.402500004      -1.94110572E-09
  0.403750002      -1.34972211E-09
  0.405000001      -6.20680618E-10
  0.406250000       2.25689231E-10
  0.407499999       1.06356113E-09
  0.408749998       1.83199378E-09
  0.409999996       2.48445953E-09
  0.411249995       2.86307711E-09
  0.412499994       2.99801606E-09
  0.413749993       2.78866108E-09
  0.414999992       2.27925234E-09
  0.416249990       1.48169887E-09
  0.417499989       4.34265152E-10
  0.418749988      -7.55849994E-10
  0.419999987      -1.97547334E-09
  0.421249986      -3.07959924E-09
  0.422500014      -4.03094980E-09
  0.423750013      -4.65238159E-09
  0.425000012      -4.89455010E-09
  0.426250011      -4.70693751E-09
  0.427500010      -4.08015355E-09
  0.428750008      -2.99616887E-09
  0.430000007      -1.58034108E-09
  0.431250006       3.73722962E-11
  0.432500005       1.71105019E-09
  0.433750004       3.27570993E-09
  0.435000002       4.67585659E-09
  0.436250001       5.64528246E-09
  0.437500000       6.16473894E-09
  0.438749999       6.07835071E-09
  0.439999998       5.47250600E-09
  0.441249996       4.32354286E-09
  0.442499995       2.68366884E-09
  0.443749994       7.82752418E-10
  0.444999993      -1.30709144E-09
  0.446249992      -3.30735439E-09
  0.447499990      -5.07812503E-09
  0.448749989      -6.42127418E-09
  0.449999988      -7.17360304E-09
  0.451249987      -7.29266825E-09
  0.452499986      -6.72288181E-09
  0.453750014      -5.52227331E-09
  0.455000013      -3.78831144E-09
  0.456250012      -1.64813707E-09
  0.457500011       6.82279178E-10
  0.458750010       3.03391690E-09
  0.460000008       5.07098852E-09
  0.461250007       6.69320910E-09
  0.462500006       7.77794451E-09
  0.463750005       8.27805735E-09
  0.465000004       8.02621702E-09
  0.466250002       7.19501214E-09
  0.467500001       5.80660320E-09
  0.468750000       4.01216971E-09
  0.469999999       1.90166771E-09
  0.471249998      -1.14933896E-10
  0.472499996      -1.94298377E-09
  0.473749995      -3.41552742E-09
  0.474999994      -4.54702542E-09
  0.476249993      -4.82177764E-09
  0.477499992      -4.83097962E-09
  0.478749990      -4.15602486E-09
  0.479999989      -3.01739034E-09
  0.481249988      -1.52630153E-09
  0.482499987       2.08317683E-10
  0.483749986       1.65395886E-09
  0.485000014       3.05229775E-09
  0.486250013       4.11648093E-09
  0.487500012       4.66327377E-09
  0.488750011       4.94079622E-09
  0.490000010       4.72496620E-09
  0.491250008       4.13616474E-09
  0.492500007       3.35430439E-09
  0.493750006       2.45267429E-09
  0.495000005       1.56193669E-09
  0.496250004       9.95718175E-10
  0.497500002       6.58616328E-10
  0.498750001       2.80386131E-10
  0.500000000       2.10148746E-10
  0.501250029       2.98978370E-10
  0.502499998       2.35314018E-10
  0.503750026       1.10802284E-10
  0.504999995      -1.46484380E-10
  0.506250024      -4.39828729E-10
  0.507499993      -1.16999699E-09
  0.508750021      -2.09810702E-09
  0.509999990      -3.30228378E-09
  0.511250019      -4.58871696E-09
  0.512499988      -6.02351280E-09
  0.513750017      -7.08590031E-09
  0.514999986      -7.99034705E-09
  0.516250014      -8.46379233E-09
  0.517499983      -8.16180901E-09
  0.518750012      -7.38544204E-09
  0.519999981      -5.76059200E-09
  0.521250010      -3.73084452E-09
  0.522499979      -1.16736787E-09
  0.523750007       1.70466496E-09
  0.524999976       4.62327243E-09
  0.526250005       6.88551705E-09
  0.527499974       8.65178063E-09
  0.528750002       9.82628467E-09
  0.529999971       9.83004078E-09
  0.531250000       8.84390072E-09
  0.532500029       6.91256030E-09
  0.533749998       4.49631932E-09
  0.535000026       1.22596155E-09
  0.536249995      -2.12552598E-09
  0.537500024      -5.27109023E-09
  0.538749993      -8.05851919E-09
  0.540000021      -1.03162563E-08
  0.541249990      -1.18568773E-08
  0.542500019      -1.21893784E-08
  0.543749988      -1.16204371E-08
  0.545000017      -1.00394386E-08
  0.546249986      -7.97062860E-09
  0.547500014      -5.33874545E-09
  0.548749983      -2.50610355E-09
  0.550000012       8.50266732E-11
  0.551249981       2.33532260E-09
  0.552500010       4.14475654E-09
  0.553749979       4.93176966E-09
  0.555000007       5.17060395E-09
  0.556249976       4.34622560E-09
  0.557500005       3.09119597E-09
  0.558749974       1.36702316E-09
  0.560000002      -5.17625109E-10
  0.561249971      -2.51300536E-09
  0.562500000      -4.03339095E-09
  0.563750029      -4.93236829E-09
  0.564999998      -5.18038235E-09
  0.566250026      -4.54451365E-09
  0.567499995      -3.43693674E-09
  0.568750024      -1.64919345E-09
  0.569999993      -9.89473781E-11
  0.571250021       1.98960537E-09
  0.572499990       3.57271634E-09
  0.573750019       4.40584635E-09
  0.574999988       4.52448923E-09
  0.576250017       3.35376460E-09
  0.577499986       1.66961678E-09
  0.578750014      -6.17898788E-10
  0.579999983      -3.50427487E-09
  0.581250012      -6.02753536E-09
  0.582499981      -8.46056114E-09
  0.583750010      -9.92411753E-09
  0.584999979      -1.01670139E-08
  0.586250007      -9.64684155E-09
  0.587499976      -7.53256035E-09
  0.588750005      -4.39173764E-09
  0.589999974       1.15145171E-10
  0.591250002       5.20634602E-09
  0.592499971       1.00659179E-08
  0.593750000       1.47155763E-08
  0.595000029       1.81428881E-08
  0.596249998       2.03488408E-08
  0.597500026       2.08578737E-08
  0.598749995       1.91839131E-08
  0.600000024       1.58331765E-08
  0.601249993       1.09305516E-08
  0.602500021       4.81595563E-09
  0.603749990      -1.47348256E-09
  0.605000019      -7.94921906E-09
  0.606249988      -1.38452156E-08
  0.607500017      -1.81958946E-08
  0.608749986      -2.04186072E-08
  0.610000014      -2.04157899E-08
  0.611249983      -1.77135302E-08
  0.612500012      -1.26182211E-08
  0.613749981      -6.01975669E-09
  0.615000010       1.91603444E-09
  0.616249979       9.83961890E-09
  0.617500007       1.79274338E-08
  0.618749976       2.44904985E-08
  0.620000005       2.91639122E-08
  0.621249974       3.05648094E-08
  0.622500002       2.91955580E-08
  0.623749971       2.47643115E-08
  0.625000000       1.79094055E-08
  0.626250029       8.88502871E-09
  0.627499998      -6.95237423E-10
  0.628750026      -1.07230322E-08
  0.629999995      -1.93030729E-08
  0.631250024      -2.60531863E-08
  0.632499993      -2.99429104E-08
  0.633750021      -3.05866905E-08
  0.634999990      -2.80241519E-08
  0.636250019      -2.20902194E-08
  0.637499988      -1.38752636E-08
  0.638750017      -3.78267728E-09
  0.639999986       6.92401603E-09
  0.641250014       1.73155801E-08
  0.642499983       2.58447272E-08
  0.643750012       3.22199902E-08
  0.644999981       3.55491281E-08
  0.646250010       3.57160843E-08
  0.647499979       3.22430900E-08
  0.648750007       2.54469654E-08
  0.649999976       1.61245506E-08
  0.651250005       5.06835951E-09
  0.652499974      -6.38521636E-09
  0.653750002      -1.73091959E-08
  0.654999971      -2.64764886E-08
  0.656250000      -3.32958976E-08
  0.657500029      -3.69230762E-08
  0.658749998      -3.71041189E-08
  0.660000026      -3.36568533E-08
  0.661249995      -2.69997003E-08
  0.662500024      -1.77711836E-08
  0.663749993      -7.73813102E-09
  0.665000021       3.29702532E-09
  0.666249990       1.30168276E-08
  0.667500019       2.14092548E-08
  0.668749988       2.68254219E-08
  0.670000017       2.95304989E-08
  0.671249986       2.88198621E-08
  0.672500014       2.46281555E-08
  0.673749983       1.74707040E-08
  0.675000012       8.77328787E-09
  0.676249981      -7.76367193E-10
  0.677500010      -1.06234976E-08
  0.678749979      -1.90831582E-08
  0.680000007      -2.59788173E-08
  0.681249976      -3.03175725E-08
  0.682500005      -3.16056941E-08
  0.683749974      -2.95558529E-08
  0.685000002      -2.50276067E-08
  0.686249971      -1.78442381E-08
  0.687500000      -8.88352680E-09
  0.688750029       8.82286688E-10
  0.689999998       1.01117417E-08
  0.691250026       1.83735072E-08
  0.692499995       2.38840894E-08
  0.693750024       2.81554247E-08
  0.694999993       2.89203363E-08
  0.696250021       2.68787570E-08
  0.697499990       2.25976571E-08
  0.698750019       1.60734679E-08
  0.699999988       8.75262973E-09
  0.701250017       2.12590154E-10
  0.702499986      -7.21529458E-09
  0.703750014      -1.37146943E-08
  0.704999983      -1.81234974E-08
  0.706250012      -2.08413464E-08
  0.707499981      -2.09480167E-08
  0.708750010      -1.92352765E-08
  0.709999979      -1.59615396E-08
  0.711250007      -1.11448317E-08
  0.712499976      -5.79326942E-09
  0.713750005      -9.31490440E-11
  0.714999974       4.63641836E-09
  0.716250002       8.71093775E-09
  0.717499971       1.10141229E-08
  0.718750000       1.21093757E-08
  0.720000029       1.21634622E-08
  0.721249998       1.05198321E-08
  0.722500026       8.23918267E-09
  0.723749995       5.73918291E-09
  0.725000024       3.01983172E-09
  0.726249993       7.24158677E-10
  0.727500021      -6.18990414E-10
  0.728749990      -1.70372605E-09
  0.730000019      -1.61358182E-09
  0.731249988      -1.03966347E-09
  0.732500017       5.40865408E-11
  0.733749986       1.16286059E-09
  0.735000014       2.54807708E-09
  0.736249983       3.88221144E-09
  0.737500012       5.09915887E-09
  0.738749981       5.79326942E-09
  0.740000010       5.83233195E-09
  0.741249979       5.28245225E-09
  0.742500007       3.54867802E-09
  0.743749976       2.07932693E-09
  0.745000005       2.85456742E-10
  0.746249974      -1.70673087E-09
  0.747500002      -2.58112998E-09
  0.748749971      -3.24819727E-09
  0.750000000      -3.90324528E-09
  0.751250029      -3.83413479E-09
  0.752499998      -2.44891840E-09
  0.753750026      -3.81610576E-10
  0.754999995       3.39543282E-10
  0.756250024       2.40384623E-09
  0.757499993       3.39543282E-09
  0.758750021       4.63491601E-09
  0.759999990       5.35606981E-09
  0.761250019       5.61598590E-09
  0.762499988       5.50330537E-09
  0.763750017       4.73707962E-09
  0.764999986       4.18269241E-09
  0.766250014       3.75450737E-09
  0.767499983       3.51825435E-09
  0.768750012       3.50247897E-09
  0.769999981       4.09399759E-09
  0.771250010       4.71905048E-09
  0.772499979       5.35118705E-09
  0.773750007       5.75871395E-09
  0.774999976       6.78110013E-09
  0.776250005       6.76682710E-09
  0.777499974       6.13882234E-09
  0.778750002       4.26983204E-09
  0.779999971       1.39723566E-09
  0.781250000      -2.18149054E-09
  0.782500029      -6.57451960E-09
  0.783749998      -1.10757217E-08
  0.785000026      -1.54296877E-08
  0.786249995      -1.92157454E-08
  0.787500024      -2.22956729E-08
  0.788749993      -2.38521647E-08
  0.790000021      -2.43028850E-08
  0.791249990      -2.28605774E-08
  0.792500019      -2.04206732E-08
  0.793749988      -1.67908656E-08
  0.795000017      -1.17908661E-08
  0.796249986      -6.01562533E-09
  0.797500014      -5.16826915E-10
  0.798749983       4.43509629E-09
  0.800000012       8.18509616E-09
  0.801249981       1.03605773E-08
  0.802500010       1.03004814E-08
  0.803749979       8.10697109E-09
  0.805000007       4.08052880E-09
  0.806249976      -1.44230772E-09
  0.807500005      -7.40985584E-09
  0.808749974      -1.37139429E-08
  0.810000002      -1.90745197E-08
  0.811249971      -2.31670683E-08
  0.812500000      -2.52103369E-08
  0.813750029      -2.50120191E-08
  0.814999998      -2.19230767E-08
  0.816250026      -1.65925478E-08
  0.817499995      -9.56129842E-09
  0.818750024      -1.38221157E-09
  0.819999993       7.34375005E-09
  0.821250021       1.54687498E-08
  0.822499990       2.18810108E-08
  0.823750019       2.61478377E-08
  0.824999988       2.73557692E-08
  0.826250017       2.55528860E-08
  0.827499986       2.07451922E-08
  0.828750014       1.33112987E-08
  0.829999983       4.12860590E-09
  0.831250012      -5.86538462E-09
  0.832499981      -1.61298086E-08
  0.833750010      -2.52223558E-08
  0.834999979      -3.23587734E-08
  0.836250007      -3.67337734E-08
  0.837499976      -3.70913469E-08
  0.838750005      -3.43149047E-08
  0.839999974      -2.83383415E-08
  0.841250002      -1.88792075E-08
  0.842499971      -7.71334197E-09
  0.843750000       4.57181493E-09
  0.845000029       1.64077054E-08
  0.846249998       2.58398440E-08
  0.847500026       3.17533058E-08
  0.848749995       3.47776457E-08
  0.850000024       3.30754233E-08
  0.851249993       2.81099766E-08
  0.852500021       1.92608187E-08
  0.853749990       7.81850940E-09
  0.855000019      -5.22836574E-09
  0.856249988      -1.80408666E-08
  0.857500017      -2.91526447E-08
  0.858749986      -3.74459148E-08
  0.860000014      -4.18209147E-08
  0.861249983      -4.33894236E-08
  0.862500012      -4.05889438E-08
  0.863749981      -3.32692309E-08
  0.865000010      -2.37259616E-08
  0.866249979      -1.07692308E-08
  0.867500007       2.92668267E-09
  0.868749976       1.64843748E-08
  0.870000005       2.94711544E-08