 -0.200000003       0.00000000    
 -0.198750004       0.00000000    
 -0.197500005       0.00000000    
 -0.196250007       0.00000000    
 -0.194999993       0.00000000    
 -0.193749994       0.00000000    
 -0.192499995       0.00000000    
 -0.191249996       0.00000000    
 -0.189999998       0.00000000    
 -0.188749999       0.00000000    
 -0.187500000       0.00000000    
 -0.186250001       0.00000000    
 -0.185000002       0.00000000    
 -0.183750004       0.00000000    
 -0.182500005       0.00000000    
 -0.181250006       0.00000000    
 -0.180000007       0.00000000    
 -0.178749993       0.00000000    
 -0.177499995       0.00000000    
 -0.176249996       0.00000000    
 -0.174999997       0.00000000    
 -0.173749998       0.00000000    
 -0.172499999       0.00000000    
 -0.171250001       0.00000000    
 -0.170000002       0.00000000    
 -0.168750003       0.00000000    
 -0.167500004       0.00000000    
 -0.166250005       0.00000000    
 -0.165000007       0.00000000    
 -0.163749993       0.00000000    
 -0.162499994       0.00000000    
 -0.161249995       0.00000000    
 -0.159999996       0.00000000    
 -0.158749998       0.00000000    
 -0.157499999       0.00000000    
 -0.156250000       0.00000000    
 -0.155000001       0.00000000    
 -0.153750002       1.40129846E-44
 -0.152500004       9.80908925E-44
 -0.151250005       3.55929810E-43
 -0.150000006       9.62692045E-43
 -0.148750007       2.18182171E-42
 -0.147499993       4.26274993E-42
 -0.146249995       6.29463270E-42
 -0.144999996       6.44877553E-42
 -0.143749997       3.02400209E-42
 -0.142499998      -1.02799255E-41
 -0.141249999      -4.34696797E-41
 -0.140000001      -1.06599577E-40
 -0.138750002      -2.08073204E-40
 -0.137500003      -3.40851838E-40
 -0.136250004      -4.58001791E-40
 -0.135000005      -4.40133835E-40
 -0.133750007      -6.02908664E-41
 -0.132499993       1.02890760E-39
 -0.131249994       3.24787773E-39
 -0.129999995       6.90974808E-39
 -0.128749996       1.18374211E-38
 -0.127499998       1.67301991E-38
 -0.126249999       1.83220629E-38
 -0.125000000       1.05860098E-38
 -0.123750001      -1.54657696E-38
 -0.122500002      -7.04457009E-38
 -0.121250004      -1.62473663E-37
 -0.119999997      -2.89060856E-37
 -0.118749999      -4.24530208E-37
 -0.117500000      -5.04468568E-37
 -0.116250001      -4.12144344E-37
 -0.115000002       2.34111922E-38
 -0.113750003       1.00286568E-36
 -0.112499997       2.68778283E-36
 -0.111249998       5.07252933E-36
 -0.109999999       7.79528175E-36
 -0.108750001       9.91499782E-36
 -0.107500002       9.72623713E-36
 -0.106250003       4.74028715E-36
 -0.104999997      -7.98631608E-36
 -0.103749998      -3.09746550E-35
 -0.102499999      -6.47493168E-35
 -0.101250000      -1.05589675E-34
 -0.100000001      -1.42950628E-34
  -9.87500027E-02  -1.57364634E-34
  -9.74999964E-02  -1.20178146E-34
  -9.62499976E-02   3.07850843E-36
  -9.49999988E-02   2.43811120E-34
  -9.37500000E-02   6.14734643E-34
  -9.25000012E-02   1.08796162E-33
  -9.12500024E-02   1.57021139E-33
  -9.00000036E-02   1.88256192E-33
  -8.87499973E-02   1.75651145E-33
  -8.74999985E-02   8.61339445E-34
  -8.62499997E-02  -1.12230663E-33
  -8.50000009E-02  -4.37352151E-33
  -8.37500021E-02  -8.75170458E-33
  -8.25000033E-02  -1.35939045E-32
  -8.12499970E-02  -1.75456182E-32
  -7.99999982E-02  -1.85118834E-32
  -7.87499994E-02  -1.38359741E-32
  -7.75000006E-02  -8.09483797E-34
  -7.62500018E-02   2.24257183E-32
  -7.50000030E-02   5.56181919E-32
  -7.37499967E-02   9.49736076E-32
  -7.24999979E-02   1.31917197E-31
  -7.12499991E-02   1.52606697E-31
  -7.00000003E-02   1.38868671E-31
  -6.87500015E-02   7.11990346E-32
  -6.75000027E-02  -6.57993484E-32
  -6.62499964E-02  -2.75733053E-31
  -6.49999976E-02  -5.41536753E-31
  -6.37499988E-02  -8.17492374E-31
  -6.25000000E-02  -1.02526138E-30
  -6.12500012E-02  -1.05767427E-30
  -5.99999987E-02  -7.93833811E-31
  -5.87499999E-02  -1.27662965E-31
  -5.75000010E-02   9.90906379E-31
  -5.62499985E-02   2.50729089E-30
  -5.49999997E-02   4.21663553E-30
  -5.37500009E-02   5.73674232E-30
  -5.24999984E-02   6.51821285E-30
  -5.12499996E-02   5.90966187E-30
  -5.00000007E-02   3.28924234E-30
  -4.87499982E-02  -1.73984750E-30
  -4.74999994E-02  -9.11230958E-30
  -4.62500006E-02  -1.80686489E-29
  -4.50000018E-02  -2.69975084E-29
  -4.37499993E-02  -3.34364038E-29
  -4.25000004E-02  -3.43123859E-29
  -4.12500016E-02  -2.64769446E-29
  -3.99999991E-02  -7.53315611E-30
  -3.87500003E-02   2.31303720E-29
  -3.75000015E-02   6.32840538E-29
  -3.62499990E-02   1.07061314E-28
  -3.50000001E-02   1.44765461E-28
  -3.37500013E-02   1.63618967E-28
  -3.24999988E-02   1.49694735E-28
  -3.12500000E-02   9.10571252E-29
  -2.99999993E-02  -1.81758676E-29
  -2.87500005E-02  -1.73517657E-28
  -2.74999999E-02  -3.56581235E-28
  -2.62499992E-02  -5.33615869E-28
  -2.50000004E-02  -6.57408964E-28
  -2.37499997E-02  -6.73520042E-28
  -2.25000009E-02  -5.31081297E-28
  -2.12500002E-02  -1.97296922E-28
  -1.99999996E-02   3.26562800E-28
  -1.87500007E-02   9.91187261E-28
  -1.75000001E-02   1.69171106E-27
  -1.62499994E-02   2.27123801E-27
  -1.49999997E-02   2.53898715E-27
  -1.37499999E-02   2.30431162E-27
  -1.25000002E-02   1.42426593E-27
  -1.12500004E-02  -1.41989474E-28
  -9.99999978E-03  -2.28302490E-27
  -8.75000004E-03  -4.70351728E-27
  -7.49999983E-03  -6.92626423E-27
  -6.25000009E-03  -8.34018801E-27
  -4.99999989E-03  -8.29977507E-27
  -3.74999992E-03  -6.27051705E-27
  -2.49999994E-03  -2.00137594E-27
  -1.24999997E-03   4.30848825E-27
   0.00000000       1.18920858E-26
   1.24999997E-03   1.93930653E-26
   2.49999994E-03   2.49805440E-26
   3.74999992E-03   2.66214116E-26
   4.99999989E-03   2.25000525E-26
   6.25000009E-03   1.15357518E-26
   7.49999983E-03  -6.09343974E-27
   8.75000004E-03  -2.85451044E-26
   9.99999978E-03  -5.21647031E-26
   1.12500004E-02  -7.17212737E-26
   1.25000002E-02  -8.11030917E-26
   1.37499999E-02  -7.44656900E-26
   1.49999997E-02  -4.77138975E-26
   1.62499994E-02  -8.01375718E-29
   1.75000001E-02   6.45415424E-26
   1.87500007E-02   1.36902188E-25
   1.99999996E-02   2.02722930E-25
   2.12500002E-02   2.44302038E-25
   2.25000009E-02   2.43455861E-25
   2.37499997E-02   1.85553446E-25
   2.50000004E-02   6.40749435E-26
   2.62499992E-02  -1.15178795E-25
   2.74999999E-02  -3.31296115E-25
   2.87500005E-02  -5.47970888E-25
   2.99999993E-02  -7.16587441E-25
   3.12500000E-02  -7.83047789E-25
   3.24999988E-02  -6.97996060E-25
   3.37500013E-02  -4.29233763E-25
   3.50000001E-02   2.57296629E-26
   3.62499990E-02   6.29694659E-25
   3.75000015E-02   1.30130929E-24
   3.87500003E-02   1.91875289E-24
   3.99999991E-02   2.33320542E-24
   4.12500016E-02   2.39211834E-24
   4.25000004E-02   1.97021975E-24
   4.37499993E-02   1.00395280E-24
   4.50000018E-02  -4.76890773E-25
   4.62500006E-02  -2.32773704E-24
   4.74999994E-02  -4.28531845E-24
   4.87499982E-02  -5.98698332E-24
   5.00000007E-02  -7.01568397E-24
   5.12499996E-02  -6.96850772E-24
   5.24999984E-02  -5.54122997E-24
   5.37500009E-02  -2.61615681E-24
   5.49999997E-02   1.66348578E-24
   5.62499985E-02   6.85097061E-24
   5.75000010E-02   1.22019979E-23
   5.87499999E-02   1.67404330E-23
   5.99999987E-02   1.93861447E-23
   6.12500012E-02   1.91355915E-23
   6.25000000E-02   1.52731660E-23
   6.37499988E-02   7.57995302E-24
   6.49999976E-02  -3.50095563E-24
   6.62499964E-02  -1.67847970E-23
   6.75000027E-02  -3.03867895E-23
   6.87500015E-02  -4.19057933E-23
   7.00000003E-02  -4.87483033E-23
   7.12499991E-02  -4.85639434E-23
   7.24999979E-02  -3.97358610E-23
   7.37499967E-02  -2.18462232E-23
   7.50000030E-02   3.97607314E-24
   7.62500018E-02   3.49167760E-23
   7.75000006E-02   6.66187165E-23
   7.87499994E-02   9.36401560E-23
   7.99999982E-02   1.10212148E-22
   8.12499970E-02   1.11218280E-22
   8.25000033E-02   9.32621213E-23
   8.37500021E-02   5.56425690E-23
   8.50000009E-02   1.03659725E-24
   8.62499997E-02  -6.42987271E-23
   8.74999985E-02  -1.30942454E-22
   8.87499973E-02  -1.87394716E-22
   9.00000036E-02  -2.21766017E-22
   9.12500024E-02  -2.23879886E-22
   9.25000012E-02  -1.87480380E-22
   9.37500000E-02  -1.12152254E-22
   9.49999988E-02  -4.53436893E-24
   9.62499976E-02   1.21546880E-22
   9.74999964E-02   2.46270763E-22
   9.87500027E-02   3.46388622E-22
  0.100000001       3.98959221E-22
  0.101250000       3.85783098E-22
  0.102499999       2.97833741E-22
  0.103749998       1.38834975E-22
  0.104999997      -7.28841023E-23
  0.106250003      -3.04981224E-22
  0.107500002      -5.14550921E-22
  0.108750001      -6.54383370E-22
  0.109999999      -6.81430773E-22
  0.111249998      -5.66322512E-22
  0.112499997      -3.02310861E-22
  0.113750003       8.82231302E-23
  0.115000002       5.51524339E-22
  0.116250001       1.00589121E-21
  0.117500000       1.35142117E-21
  0.118749999       1.48565112E-21
  0.119999997       1.32344687E-21
  0.121250004       8.18303315E-22
  0.122500002      -1.87080683E-23
  0.123750001      -1.10653269E-21
  0.125000000      -2.29219260E-21
  0.126249999      -3.36217779E-21
  0.127499998      -4.06819825E-21
  0.128749996      -4.16589078E-21
  0.129999995      -3.46233167E-21
  0.131249994      -1.86562893E-21
  0.132499993       5.72068196E-22
  0.133750007       3.62759452E-21
  0.135000005       6.90452100E-21
  0.136250004       9.86183386E-21
  0.137500003       1.18755824E-20
  0.138750002       1.23301053E-20
  0.140000001       1.07294243E-20
  0.141249999       6.81374682E-21
  0.142499998       6.61807851E-22
  0.143749997      -7.24194849E-21
  0.144999996      -1.59947941E-20
  0.146249995      -2.43319378E-20
  0.147499993      -3.07569469E-20
  0.148750007      -3.37402642E-20
  0.150000006      -3.19668471E-20
  0.151250005      -2.46018507E-20
  0.152500004      -1.15338163E-20
  0.153750002       6.44956641E-21
  0.155000001       2.75958438E-20
  0.156250000       4.92653489E-20
  0.157499999       6.81679220E-20
  0.158749998       8.07518853E-20
  0.159999996       8.37124745E-20
  0.161249995       7.45613172E-20
  0.162499994       5.21780070E-20
  0.163749993       1.72531119E-20
  0.165000007      -2.74672722E-20
  0.166250005      -7.72101176E-20
  0.167500004      -1.25522163E-19
  0.168750003      -1.64937850E-19
  0.170000002      -1.87922084E-19
  0.171250001      -1.87991154E-19
  0.172499999      -1.60871210E-19
  0.173749998      -1.05524768E-19
  0.174999997      -2.48679960E-20
  0.176249996       7.39801776E-20
  0.177499995       1.80030600E-19
  0.178749993       2.79381958E-19
  0.180000007       3.56761396E-19
  0.181250006       3.97511259E-19
  0.182500005       3.89798653E-19
  0.183750004       3.26758547E-19
  0.185000002       2.08248264E-19
  0.186250001       4.19013574E-20
  0.187500000      -1.56773409E-19
  0.188749999      -3.65399488E-19
  0.189999998      -5.56859074E-19
  0.191249996      -7.02392145E-19
  0.192499995      -7.75361883E-19
  0.193749994      -7.55245006E-19
  0.194999993      -6.31315410E-19
  0.196250007      -4.05463929E-19
  0.197500005      -9.36480187E-20
  0.198750004       2.74405872E-19
  0.200000003       6.57427279E-19
  0.201250002       1.00668759E-18
  0.202500001       1.27161359E-18
  0.203749999       1.40634508E-18
  0.204999998       1.37645563E-18
  0.206249997       1.16494151E-18
  0.207499996       7.76584042E-19
  0.208749995       2.39910269E-19
  0.209999993      -3.93781838E-19
  0.211250007      -1.05452945E-18
  0.212500006      -1.66073713E-18
  0.213750005      -2.12851687E-18
  0.215000004      -2.38234468E-18
  0.216250002      -2.36576406E-18
  0.217500001      -2.05073480E-18
  0.218750000      -1.44426118E-18
  0.219999999      -5.91162047E-19
  0.221249998       4.27762495E-19
  0.222499996       1.50238178E-18
  0.223749995       2.50430481E-18
  0.224999994       3.30136654E-18
  0.226249993       3.77398632E-18
  0.227500007       3.83147620E-18
  0.228750005       3.42620795E-18
  0.230000004       2.56363641E-18
  0.231250003       1.30653291E-18
  0.232500002      -2.27623380E-19
  0.233750001      -1.87636864E-18
  0.234999999      -3.44848206E-18
  0.236249998      -4.74523532E-18
  0.237499997      -5.58441708E-18
  0.238749996      -5.82435199E-18
  0.239999995      -5.38489947E-18
  0.241249993      -4.26254814E-18
  0.242500007      -2.53722640E-18
  0.243750006      -3.69291657E-19
  0.245000005       2.01373708E-18
  0.246250004       4.33988622E-18
  0.247500002       6.32281102E-18
  0.248750001       7.69609835E-18
  0.250000000       8.24783609E-18
  0.251249999       7.85115004E-18
  0.252499998       6.48653861E-18
  0.253749996       4.25253057E-18
  0.254999995       1.36235654E-18
  0.256249994      -1.87409266E-18
  0.257499993      -5.08196070E-18
  0.258749992      -7.86387870E-18
  0.259999990      -9.84866549E-18
  0.261249989      -1.07405515E-17
  0.262499988      -1.03626408E-17
  0.263749987      -8.68847603E-18
  0.264999986      -5.85656447E-18
  0.266250014      -2.16446614E-18
  0.267500013       1.95859743E-18
  0.268750012       5.99891605E-18
  0.270000011       9.42075090E-18
  0.271250010       1.17370932E-17
  0.272500008       1.25798976E-17
  0.273750007       1.17601409E-17
  0.275000006       9.30843383E-18
  0.276250005       5.48858780E-18
  0.277500004       7.79479588E-19
  0.278750002      -4.17553205E-18
  0.280000001      -8.64791274E-18
  0.281250000      -1.19237481E-17
  0.282499999      -1.34118974E-17
  0.283749998      -1.27457291E-17
  0.284999996      -9.86277223E-18
  0.286249995      -5.04786059E-18
  0.287499994       1.07115381E-18
  0.288749993       7.58050316E-18
  0.289999992       1.33887537E-17
  0.291249990       1.73767320E-17
  0.292499989       1.85721999E-17
  0.293749988       1.63262937E-17
  0.294999987       1.04652592E-17
  0.296249986       1.39087091E-18
  0.297500014      -9.89324887E-18
  0.298750013      -2.18444983E-17
  0.300000012      -3.25373777E-17
  0.301250011      -3.99034707E-17
  0.302500010      -4.20321869E-17
  0.303750008      -3.74964644E-17
  0.305000007      -2.56585057E-17
  0.306250006      -6.90667522E-18
  0.307500005       1.72227689E-17
  0.308750004       4.40756407E-17
  0.310000002       7.00814216E-17
  0.311250001       9.11244596E-17
  0.312500000       1.03057751E-16
  0.313749999       1.02307405E-16
  0.314999998       8.64947429E-17
  0.316249996       5.49892499E-17
  0.317499995       9.30204634E-18
  0.318749994      -4.67614564E-17
  0.319999993      -1.07249373E-16
  0.321249992      -1.64537857E-16
  0.322499990      -2.10116594E-16
  0.323749989      -2.35623602E-16
  0.324999988      -2.34023848E-16
  0.326249987      -2.00790815E-16
  0.327499986      -1.34928643E-16
  0.328750014      -3.96713109E-17
  0.330000013       7.72843052E-17
  0.331250012       2.04111885E-16
  0.332500011       3.25793065E-16
  0.333750010       4.25620318E-16
  0.335000008       4.87145430E-16
  0.336250007       4.96377295E-16
  0.337500006       4.43973484E-16
  0.338750005       3.27135533E-16
  0.340000004       1.50918772E-16
  0.341250002      -7.12940551E-17
  0.342500001      -3.18329461E-16
  0.343750000      -5.62834918E-16
  0.344999999      -7.73899276E-16
  0.346249998      -9.20477057E-16
  0.347499996      -9.75281782E-16
  0.348749995      -9.18711946E-16
  0.349999994      -7.42316276E-16
  0.351249993      -4.51302384E-16
  0.352499992      -6.56557869E-17
  0.353749990       3.80440428E-16
  0.354999989       8.41017425E-16
  0.356249988       1.26248143E-15
  0.357499987       1.58921380E-15
  0.358749986       1.77008541E-15
  0.360000014       1.76518956E-15
  0.361250013       1.55199316E-15
  0.362500012       1.13008806E-15
  0.363750011       5.23811316E-16
  0.365000010      -2.17818585E-16
  0.366250008      -1.02413070E-15
  0.367500007      -1.80874907E-15
  0.368750006      -2.47805291E-15
  0.370000005      -2.94139878E-15
  0.371250004      -3.12207048E-15
  0.372500002      -2.96772774E-15
  0.373750001      -2.45906878E-15
  0.375000000      -1.61550698E-15
  0.376249999      -4.96901661E-16
  0.377499998       7.99239007E-16
  0.378749996       2.14519035E-15
  0.379999995       3.39464823E-15
  0.381249994       4.39761126E-15
  0.382499993       5.01708457E-15
  0.383749992       5.14584332E-15
  0.384999990       4.72133581E-15
  0.386249989       3.73685441E-15
  0.387499988       2.24737577E-15
  0.388749987       3.68948891E-16
  0.389999986      -1.72884168E-15
  0.391250014      -3.83706010E-15
  0.392500013      -5.72719464E-15
  0.393750012      -7.17475023E-15
  0.395000011      -7.98431552E-15
  0.396250010      -8.01341449E-15
  0.397500008      -7.19239308E-15
  0.398750007      -5.53782856E-15
  0.400000006      -3.15748493E-15
  0.401250005      -2.45658454E-16
  0.402500004       2.93127822E-15
  0.403750002       6.05823417E-15
  0.405000001       8.80172010E-15
  0.406250000       1.08442884E-14
  0.407499999       1.19196221E-14
  0.408749998       1.18444911E-14
  0.409999996       1.05439025E-14
  0.411249995       8.06629306E-15
  0.412499994       4.58650087E-15
  0.413749993       3.95446490E-16
  0.414999992      -4.12316453E-15
  0.416249990      -8.52737714E-15
  0.417499989      -1.23597193E-14
  0.418749988      -1.51940194E-14
  0.419999987      -1.66815550E-14
  0.421249986      -1.65915899E-14
  0.422500014      -1.48417113E-14
  0.423750013      -1.15142313E-14
  0.425000012      -6.85623577E-15
  0.426250011      -1.26249287E-15
  0.427500010       4.75778788E-15
  0.428750008       1.06275818E-14
  0.430000007       1.57577656E-14
  0.431250006       1.96064783E-14
  0.432500005       2.17360852E-14
  0.433750004       2.18617001E-14
  0.435000002       1.98859263E-14
  0.436250001       1.59156932E-14
  0.437500000       1.02588378E-14
  0.438749999       3.40012916E-15
  0.439999998      -4.04143051E-15
  0.441249996      -1.13701552E-14
  0.442499995      -1.78805623E-14
  0.443749994      -2.29269474E-14
  0.444999993      -2.59885751E-14
  0.446249992      -2.67237082E-14
  0.447499990      -2.50067335E-14
  0.448749989      -2.09443126E-14
  0.449999988      -1.48686012E-14
  0.451249987      -7.30795802E-15
  0.452499986       1.06209948E-15
  0.453750014       9.48285233E-15
  0.455000013       1.71848179E-14
  0.456250012       2.34613490E-14
  0.457500011       2.77359465E-14
  0.458750010       2.96165239E-14
  0.460000008       2.89312438E-14
  0.461250007       2.57425341E-14
  0.462500006       2.03382030E-14
  0.463750005       1.32009721E-14
  0.465000004       4.95999412E-15
  0.466250002      -3.67029371E-15
  0.467500001      -1.19574565E-14
  0.468750000      -1.92175208E-14
  0.469999999      -2.48740220E-14
  0.471249998      -2.85040952E-14
  0.472499996      -2.98677505E-14
  0.473749995      -2.89184739E-14
  0.474999994      -2.57954211E-14
  0.476249993      -2.07994649E-14
  0.477499992      -1.43569357E-14
  0.478749990      -6.97594313E-15
  0.479999989       7.99490894E-16
  0.481249988       8.43257721E-15
  0.482499987       1.54302095E-14
  0.483749986       2.13701042E-14
  0.485000014       2.59176564E-14
  0.486250013       2.88330828E-14
  0.487500012       2.99707836E-14
  0.488750011       2.92737433E-14
  0.490000010       2.67660378E-14
  0.491250008       2.25462620E-14
  0.492500007       1.67837749E-14
  0.493750006       9.71838932E-15
  0.495000005       1.66269889E-15
  0.496250004      -6.99516993E-15
  0.497500002      -1.57915927E-14
  0.498750001      -2.41939410E-14
  0.500000000      -3.16169413E-14
  0.501250029      -3.74512772E-14
  0.502499998      -4.11051029E-14
  0.503750026      -4.20569307E-14
  0.504999995      -3.99159770E-14
  0.506250024      -3.44838565E-14
  0.507499993      -2.58097868E-14
  0.508750021      -1.42307210E-14
  0.509999990      -3.88144775E-16
  0.511250019       1.47851820E-14
  0.512499988       3.01124651E-14
  0.513750017       4.42543375E-14
  0.514999986       5.58204606E-14
  0.516250014       6.35028393E-14
  0.517499983       6.62184879E-14
  0.518750012       6.32464391E-14
  0.519999981       5.43426286E-14
  0.521250010       3.98169385E-14
  0.522499979       2.05593311E-14
  0.523750007      -1.99353820E-15
  0.524999976      -2.59537841E-14
  0.526250005      -4.91354157E-14
  0.527499974      -6.92536442E-14
  0.528750002      -8.41525065E-14
  0.529999971      -9.20380308E-14
  0.531250000      -9.16916282E-14
  0.532500029      -8.26385198E-14
  0.533749998      -6.52491028E-14
  0.535000026      -4.07571112E-14
  0.536249995      -1.11865642E-14
  0.537500024       2.08106678E-14
  0.538749993       5.21946818E-14
  0.540000021       7.98332212E-14
  0.541249990       1.00824134E-13
  0.542500019       1.12810599E-13
  0.543749988       1.14254092E-13
  0.545000017       1.04632828E-13
  0.546249986       8.45400139E-14
  0.547500014       5.56662633E-14
  0.548749983       2.06628199E-14
  0.550000012      -1.71046140E-14
  0.551249981      -5.38887884E-14
  0.552500010      -8.59471118E-14
  0.553749979      -1.09940350E-13
  0.555000007      -1.23299943E-13
  0.556249976      -1.24521975E-13
  0.557500005      -1.13352517E-13
  0.558749974      -9.08403534E-14
  0.560000002      -5.92471561E-14
  0.561249971      -2.18214017E-14
  0.562500000       1.75420727E-14
  0.563750029       5.47211067E-14
  0.564999998       8.58180375E-14
  0.566250026       1.07593459E-13
  0.567499995       1.17831770E-13
  0.568750024       1.15595047E-13
  0.569999993       1.01333852E-13
  0.571250021       7.68393934E-14
  0.572499990       4.50398419E-14
  0.573750019       9.66215819E-15
  0.574999988      -2.52028623E-14
  0.576250017      -5.55822613E-14
  0.577499986      -7.80924940E-14
  0.578750014      -9.03440801E-14
  0.579999983      -9.12293312E-14
  0.581250012      -8.10561741E-14
  0.582499981      -6.15090390E-14
  0.583750010      -3.54384999E-14
  0.584999979      -6.50240173E-15
  0.586250007       2.12998225E-14
  0.587499976       4.41436438E-14
  0.588750005       5.88828912E-14
  0.589999974       6.34761476E-14
  0.591250002       5.72798238E-14
  0.592499971       4.11665941E-14
  0.593750000       1.74486229E-14
  0.595000029      -1.03911368E-14
  0.596249998      -3.81318478E-14
  0.597500026      -6.13624074E-14
  0.598749995      -7.60777753E-14
  0.600000024      -7.92492496E-14
  0.601249993      -6.92939629E-14
  0.602500021      -4.63785165E-14
  0.603749990      -1.25095873E-14
  0.605000019       2.86108722E-14
  0.606249988       7.19596569E-14
  0.607500017       1.11760299E-13
  0.608749986       1.42183655E-13
  0.610000014       1.58100109E-13
  0.611249983       1.55791910E-13
  0.612500012       1.33534270E-13
  0.613749981       9.19653622E-14
  0.615000010       3.41871544E-14
  0.616249979      -3.44309847E-14
  0.617500007      -1.06739236E-13
  0.618749976      -1.74542469E-13
  0.620000005      -2.29508930E-13
  0.621249974      -2.64153039E-13
  0.622500002      -2.72778924E-13
  0.623749971      -2.52269912E-13
  0.625000000      -2.02622207E-13
  0.626250029      -1.27145852E-13
  0.627499998      -3.22917081E-14
  0.628750026       7.28947813E-14
  0.629999995       1.77648518E-13
  0.631250024       2.70603391E-13
  0.632499993       3.41037420E-13
  0.633750021       3.80107133E-13
  0.634999990       3.81929297E-13
  0.636250019       3.44379798E-13
  0.637499988       2.69506178E-13
  0.638750017       1.63490640E-13
  0.639999986       3.61494756E-14
  0.641250014      -9.99931000E-14
  0.642499983      -2.30968673E-13
  0.643750012      -3.42836491E-13
  0.644999981      -4.23205660E-13
  0.646250010      -4.62638933E-13
  0.647499979      -4.55777343E-13
  0.648750007      -4.02051385E-13
  0.649999976      -3.05885851E-13
  0.651250005      -1.76361624E-13
  0.652499974      -2.63558232E-14
  0.653750002       1.28758224E-13
  0.654999971       2.72718398E-13
  0.656250000       3.90118005E-13
  0.657500029       4.68096807E-13
  0.658749998       4.97790394E-13
  0.660000026       4.75372129E-13
  0.661249995       4.02563697E-13
  0.662500024       2.86547289E-13
  0.663749993       1.39277885E-13
  0.665000021      -2.37397518E-14
  0.666249990      -1.85083109E-13
  0.667500019      -3.27280005E-13
  0.668749988      -4.34710211E-13
  0.670000017      -4.95331694E-13
  0.671249986      -5.02038840E-13
  0.672500014      -4.53498838E-13
  0.673749983      -3.54367740E-13
  0.675000012      -2.14855789E-13
  0.676249981      -4.96826294E-14
  0.677500010       1.23468483E-13
  0.678749979       2.85832854E-13
  0.680000007       4.19579925E-13
  0.681249976       5.09743560E-13
  0.682500005       5.45856383E-13
  0.683749974       5.23109659E-13
  0.685000002       4.42911549E-13
  0.686249971       3.12782488E-13
  0.687500000       1.45598255E-13
  0.688750029      -4.17368708E-14
  0.689999998      -2.30043713E-13
  0.691250026      -3.99859074E-13
  0.692499995      -5.33451104E-13
  0.693750024      -6.16645840E-13
  0.694999993      -6.40272937E-13
  0.696250021      -6.01082172E-13
  0.697499990      -5.02043448E-13
  0.698750019      -3.52009952E-13
  0.699999988      -1.64790016E-13
  0.701250017       4.22625497E-14
  0.702499986       2.49982869E-13
  0.703750014       4.39266272E-13
  0.704999983       5.92882080E-13
  0.706250012       6.97049460E-13
  0.707499981       7.42626392E-13
  0.708750010       7.25810525E-13
  0.709999979       6.48305357E-13
  0.711250007       5.16967816E-13
  0.712499976       3.43003783E-13
  0.713750005       1.40816070E-13
  0.714999974      -7.33544017E-14
  0.716250002      -2.82845335E-13
  0.717499971      -4.71913036E-13
  0.718750000      -6.26880655E-13
  0.720000029      -7.37017760E-13
  0.721249998      -7.95090068E-13
  0.722500026      -7.97597394E-13
  0.723749995      -7.44726546E-13
  0.725000024      -6.40069378E-13
  0.726249993      -4.90190191E-13
  0.727500021      -3.04103856E-13
  0.728749990      -9.27251507E-14
  0.730000019       1.31663127E-13
  0.731249988       3.55911074E-13
  0.732500017       5.66503441E-13
  0.733749986       7.50061417E-13
  0.735000014       8.93868963E-13
  0.736249983       9.86485633E-13
  0.737500012       1.01843935E-12
  0.738749981       9.82994285E-13
  0.740000010       8.76970859E-13
  0.741249979       7.01510519E-13
  0.742500007       4.62670700E-13
  0.743749976       1.71775381E-13
  0.745000005      -1.54597757E-13
  0.746249974      -4.95122389E-13
  0.747500002      -8.24785390E-13
  0.748749971      -1.11645372E-12
  0.750000000      -1.34295656E-12
  0.751250029      -1.47951215E-12
  0.752499998      -1.50622115E-12
  0.753750026      -1.41053434E-12
  0.754999995      -1.18929432E-12
  0.756250024      -8.50104926E-13
  0.757499993      -4.11854388E-13
  0.758750021       9.58648579E-14
  0.759999990       6.34466438E-13
  0.761250019       1.15914613E-12
  0.762499988       1.62253392E-12
  0.763750017       1.97899683E-12
  0.764999986       2.18914210E-12
  0.766250014       2.22409981E-12
  0.767499983       2.06911593E-12
  0.768750012       1.72606829E-12
  0.769999981       1.21446061E-12
  0.771250010       5.70815313E-13
  0.772499979      -1.53675941E-13
  0.773750007      -8.97294337E-13
  0.774999976      -1.59301392E-12
  0.776250005      -2.17466995E-12
  0.777499974      -2.58341569E-12
  0.778750002      -2.77373198E-12
  0.779999971      -2.71865907E-12
  0.781250000      -2.41316949E-12
  0.782500029      -1.87563767E-12
  0.783749998      -1.14712309E-12
  0.785000026      -2.88211458E-13
  0.786249995       6.25908776E-13
  0.787500024       1.51234537E-12
  0.788749993       2.28831385E-12
  0.790000021       2.87900671E-12
  0.791249990       3.22518726E-12
  0.792500019       3.28926274E-12
  0.793749988       3.05948669E-12
  0.795000017       2.55183374E-12
  0.796249986       1.80891500E-12
  0.797500014       8.96548569E-13
  0.798749983      -1.02301929E-13
  0.800000012      -1.09550194E-12
  0.801249981      -1.99023827E-12
  0.802500010      -2.70181729E-12
  0.803749979      -3.16235948E-12
  0.805000007      -3.32740346E-12
  0.806249976      -3.18024318E-12
  0.807500005      -2.73378911E-12
  0.808749974      -2.02935889E-12
  0.810000002      -1.13294357E-12
  0.811249971      -1.28916639E-13
  0.812500000       8.88378292E-13
  0.813750029       1.82397261E-12
  0.814999998       2.59089560E-12
  0.816250026       3.11900072E-12
  0.817499995       3.36159074E-12
  0.818750024       3.29882237E-12
  0.819999993       2.94058549E-12
  0.821250021       2.32483434E-12
  0.822499990       1.51234765E-12
  0.823750019       5.81198338E-13
  0.824999988      -3.80306192E-13
  0.826250017      -1.28250318E-12
  0.827499986      -2.04321629E-12
  0.828750014      -2.59548264E-12
  0.829999983      -2.89347821E-12
  0.831250012      -2.91566294E-12
  0.832499981      -2.66656684E-12
  0.833750010      -2.17512922E-12
  0.834999979      -1.49094203E-12
  0.836250007      -6.79554069E-13
  0.837499976       1.83840315E-13
  0.838750005       1.02236947E-12
  0.839999974       1.76444178E-12
  0.841250002       2.34957236E-12
  0.842499971       2.73417075E-12
  0.843750000       2.89284373E-12
  0.845000029       2.81946948E-12
  0.846249998       2.52871986E-12
  0.847500026       2.05286569E-12
  0.848749995       1.43683969E-12
  0.850000024       7.34784954E-13
  0.851249993       5.37815396E-15
  0.852500021      -6.95367050E-13
  0.853749990      -1.31626762E-12
  0.855000019      -1.81439737E-12
  0.856249988      -2.15869206E-12
  0.857500017      -2.32948058E-12
  0.858749986      -2.32081693E-12
  0.860000014      -2.13913826E-12
  0.861249983      -1.80288727E-12
  0.862500012      -1.33830848E-12
  0.863749981      -7.76986765E-13
  0.865000010      -1.60549999E-13
  0.866249979       4.65628892E-13
  0.867500007       1.05914442E-12
  0.868749976       1.57569118E-12
  0.870000005       1.97273513E-12