 -0.200000003       0.00000000    
 -0.198750004       0.00000000    
 -0.197500005       0.00000000    
 -0.196250007       0.00000000    
 -0.194999993       0.00000000    
 -0.193749994       0.00000000    
 -0.192499995       0.00000000    
 -0.191249996       0.00000000    
 -0.189999998       0.00000000    
 -0.188749999       0.00000000    
 -0.187500000       0.00000000    
 -0.186250001       0.00000000    
 -0.185000002       0.00000000    
 -0.183750004       0.00000000    
 -0.182500005       0.00000000    
 -0.181250006       0.00000000    
 -0.180000007       0.00000000    
 -0.178749993       0.00000000    
 -0.177499995       0.00000000    
 -0.176249996       0.00000000    
 -0.174999997       0.00000000    
 -0.173749998       0.00000000    
 -0.172499999       0.00000000    
 -0.171250001       0.00000000    
 -0.170000002       0.00000000    
 -0.168750003       0.00000000    
 -0.167500004       0.00000000    
 -0.166250005       0.00000000    
 -0.165000007       0.00000000    
 -0.163749993       0.00000000    
 -0.162499994       0.00000000    
 -0.161249995       0.00000000    
 -0.159999996       0.00000000    
 -0.158749998       0.00000000    
 -0.157499999       0.00000000    
 -0.156250000       0.00000000    
 -0.155000001       1.12103877E-41
 -0.153750002      -1.12103877E-41
 -0.152500004      -6.72623263E-41
 -0.151250005      -1.53792506E-40
 -0.150000006      -4.43247520E-40
 -0.148750007      -9.02873416E-40
 -0.147499993      -1.17796512E-39
 -0.146249995      -3.80570242E-40
 -0.144999996       1.98470246E-39
 -0.143749997       7.81517886E-39
 -0.142499998       1.99033848E-38
 -0.141249999       3.88099979E-38
 -0.140000001       6.31002905E-38
 -0.138750002       8.22804903E-38
 -0.137500003       6.85037870E-38
 -0.136250004      -2.90923686E-38
 -0.135000005      -2.90456774E-37
 -0.133750007      -8.10784655E-37
 -0.132499993      -1.65374205E-36
 -0.131249994      -2.76100621E-36
 -0.129999995      -3.78896971E-36
 -0.128749996      -3.90694424E-36
 -0.127499998      -1.60810214E-36
 -0.126249999       5.30669262E-36
 -0.125000000       1.93318813E-35
 -0.123750001       4.21280702E-35
 -0.122500002       7.23687587E-35
 -0.121250004       1.02496874E-34
 -0.119999997       1.14920655E-34
 -0.118749999       7.90607539E-35
 -0.117500000      -4.79789298E-35
 -0.116250001      -3.13220962E-34
 -0.115000002      -7.47580428E-34
 -0.113750003      -1.33046473E-33
 -0.112499997      -1.94036024E-33
 -0.111249998      -2.30112864E-33
 -0.109999999      -1.94621549E-33
 -0.108750001      -2.37693774E-34
 -0.107500002       3.51151387E-33
 -0.106250003       9.76396538E-33
 -0.104999997       1.83076780E-32
 -0.103749998       2.76622268E-32
 -0.102499999       3.44710133E-32
 -0.101250000       3.31397072E-32
 -0.100000001       1.61147786E-32
  -9.87500027E-02  -2.47224594E-32
  -9.74999964E-02  -9.51230365E-32
  -9.62499976E-02  -1.93856792E-31
  -9.49999988E-02  -3.06860708E-31
  -9.37500000E-02  -4.01491647E-31
  -9.25000012E-02  -4.23326925E-31
  -9.12500024E-02  -2.98970790E-31
  -9.00000036E-02   5.12303301E-32
  -8.87499973E-02   6.87418141E-31
  -8.74999985E-02   1.61085514E-30
  -8.62499997E-02   2.71526895E-30
  -8.50000009E-02   3.74014655E-30
  -8.37500021E-02   4.24513253E-30
  -8.25000033E-02   3.63125477E-30
  -8.12499970E-02   1.23656316E-30
  -7.99999982E-02  -3.47332212E-30
  -7.87499994E-02  -1.06189240E-29
  -7.75000006E-02  -1.95580187E-29
  -7.62500018E-02  -2.85531332E-29
  -7.50000030E-02  -3.45838909E-29
  -7.37499967E-02  -3.34704476E-29
  -7.24999979E-02  -2.04792948E-29
  -7.12499991E-02   8.46800326E-30
  -7.00000003E-02   5.49888990E-29
  -6.87500015E-02   1.16047800E-28
  -6.75000027E-02   1.81855405E-28
  -6.62499964E-02   2.34611297E-28
  -6.49999976E-02   2.49037884E-28
  -6.37499988E-02   1.95658569E-28
  -6.25000000E-02   4.74676370E-29
  -6.12500012E-02  -2.10057303E-28
  -5.99999987E-02  -5.66749038E-28
  -5.87499999E-02  -9.75874481E-28
  -5.75000010E-02  -1.34648705E-27
  -5.62499985E-02  -1.54484445E-27
  -5.49999997E-02  -1.40968230E-27
  -5.37500009E-02  -7.84573352E-28
  -5.24999984E-02   4.32805329E-28
  -5.12499996E-02   2.22992181E-27
  -5.00000007E-02   4.41898617E-27
  -4.87499982E-02   6.59501044E-27
  -4.74999994E-02   8.13460115E-27
  -4.62500006E-02   8.25744390E-27
  -4.50000018E-02   6.16548646E-27
  -4.37499993E-02   1.25979960E-27
  -4.25000004E-02  -6.58734755E-27
  -4.12500016E-02  -1.67550174E-26
  -3.99999991E-02  -2.76667602E-26
  -3.87500003E-02  -3.67478496E-26
  -3.75000015E-02  -4.06389214E-26
  -3.62499990E-02  -3.57304008E-26
  -3.50000001E-02  -1.90231573E-26
  -3.37500013E-02   1.07682017E-26
  -3.24999988E-02   5.20587369E-26
  -3.12500000E-02   9.94749226E-26
  -2.99999993E-02   1.43533870E-25
  -2.87500005E-02   1.71277985E-25
  -2.74999999E-02   1.68122714E-25
  -2.62499992E-02   1.20959975E-25
  -2.50000004E-02   2.22408794E-26
  -2.37499997E-02  -1.25623215E-25
  -2.25000009E-02  -3.06569245E-25
  -2.12500002E-02  -4.89177479E-25
  -1.99999996E-02  -6.28240591E-25
  -1.87500007E-02  -6.70564014E-25
  -1.75000001E-02  -5.65239497E-25
  -1.62499994E-02  -2.77556839E-25
  -1.49999997E-02   1.95567370E-25
  -1.37499999E-02   8.12014811E-25
  -1.25000002E-02   1.47697560E-24
  -1.12500004E-02   2.04587270E-24
  -9.99999978E-03   2.34104591E-24
  -8.75000004E-03   2.18330075E-24
  -7.49999983E-03   1.43606527E-24
  -6.25000009E-03   5.57981718E-26
  -4.99999989E-03  -1.86167584E-24
  -3.74999992E-03  -4.05211065E-24
  -2.49999994E-03  -6.08482022E-24
  -1.24999997E-03  -7.40674283E-24
   0.00000000      -7.43315942E-24
   1.24999997E-03  -5.67963483E-24
   2.49999994E-03  -1.91752917E-24
   3.74999992E-03   3.67681441E-24
   4.99999989E-03   1.04181523E-23
   6.25000009E-03   1.70954331E-23
   7.49999983E-03   2.20768593E-23
   8.75000004E-03   2.35544226E-23
   9.99999978E-03   1.99174205E-23
   1.12500004E-02   1.02095751E-23
   1.25000002E-02  -5.41145013E-24
   1.37499999E-02  -2.53216683E-23
   1.49999997E-02  -4.63063592E-23
   1.62499994E-02  -6.37708782E-23
   1.75000001E-02  -7.23498163E-23
   1.87500007E-02  -6.69047449E-23
   1.99999996E-02  -4.38054398E-23
   2.12500002E-02  -2.28874443E-24
   2.25000009E-02   5.43952979E-23
   2.37499997E-02   1.18385808E-22
   2.50000004E-02   1.77477485E-22
   2.62499992E-02   2.16468506E-22
   2.74999999E-02   2.19629302E-22
   2.87500005E-02   1.74086721E-22
   2.99999993E-02   7.36492406E-23
   3.12500000E-02  -7.76482794E-23
   3.24999988E-02  -2.63159530E-22
   3.37500013E-02  -4.53287907E-22
   3.50000001E-02  -6.07894093E-22
   3.62499990E-02  -6.81753537E-22
   3.75000015E-02  -6.32788069E-22
   3.87500003E-02  -4.32109378E-22
   3.99999991E-02  -7.42412964E-23
   4.12500016E-02   4.14621682E-22
   4.25000004E-02   9.72651309E-22
   4.37499993E-02   1.50479360E-21
   4.50000018E-02   1.89285016E-21
   4.62500006E-02   2.01327885E-21
   4.74999994E-02   1.76115517E-21
   4.87499982E-02   1.07702036E-21
   5.00000007E-02  -2.81286342E-23
   5.12499996E-02  -1.45534694E-21
   5.24999984E-02  -3.01331719E-21
   5.37500009E-02  -4.43136527E-21
   5.49999997E-02  -5.39187221E-21
   5.62499985E-02  -5.58059541E-21
   5.75000010E-02  -4.74946832E-21
   5.87499999E-02  -2.78255561E-21
   5.99999987E-02   2.47107561E-22
   6.12500012E-02   4.04324429E-21
   6.25000000E-02   8.08694984E-21
   6.37499988E-02   1.16805730E-20
   6.49999976E-02   1.40368204E-20
   6.62499964E-02   1.44066380E-20
   6.75000027E-02   1.22303961E-20
   6.87500015E-02   7.28880213E-21
   7.00000003E-02  -1.75463782E-22
   7.12499991E-02  -9.39531127E-21
   7.24999979E-02  -1.91014179E-20
   7.37499967E-02  -2.76439076E-20
   7.50000030E-02  -3.32128202E-20
   7.62500018E-02  -3.41375759E-20
   7.75000006E-02  -2.92264689E-20
   7.87499994E-02  -1.80910038E-20
   7.99999982E-02  -1.39082322E-21
   8.12499970E-02   1.90637182E-20
   8.25000033E-02   4.04010844E-20
   8.37500021E-02   5.89941142E-20
   8.50000009E-02   7.09699640E-20
   8.62499997E-02   7.28718525E-20
   8.74999985E-02   6.23803072E-20
   8.87499973E-02   3.89709957E-20
   9.00000036E-02   4.37283376E-21
   9.12500024E-02  -3.73013801E-20
   9.25000012E-02  -7.98438025E-20
   9.37500000E-02  -1.15691781E-19
   9.49999988E-02  -1.37073263E-19
   9.62499976E-02  -1.37423961E-19
   9.74999964E-02  -1.12863844E-19
   9.87500027E-02  -6.34645536E-20
  0.100000001       5.97711542E-21
  0.101250000       8.59109073E-20
  0.102499999       1.62911735E-19
  0.103749998       2.21488207E-19
  0.104999997       2.46670609E-19
  0.106250003       2.27046473E-19
  0.107500002       1.57753075E-19
  0.108750001       4.28387566E-20
  0.109999999      -1.03603894E-19
  0.111249998      -2.58023818E-19
  0.112499997      -3.89986604E-19
  0.113750003      -4.66685892E-19
  0.115000002      -4.58954442E-19
  0.116250001      -3.47949673E-19
  0.117500000      -1.31375513E-19
  0.118749999       1.72072890E-19
  0.119999997       5.21312642E-19
  0.121250004       8.55506947E-19
  0.122500002       1.10117116E-18
  0.123750001       1.18344834E-18
  0.125000000       1.04038972E-18
  0.126249999       6.38245116E-19
  0.127499998      -1.48873656E-20
  0.128749996      -8.60002674E-19
  0.129999995      -1.78550720E-18
  0.131249994      -2.63496482E-18
  0.132499993      -3.22507154E-18
  0.133750007      -3.37294992E-18
  0.135000005      -2.92996058E-18
  0.136250004      -1.81741714E-18
  0.137500003      -5.81790181E-20
  0.138750002       2.20248605E-18
  0.140000001       4.69294758E-18
  0.141249999       7.03272431E-18
  0.142499998       8.77321572E-18
  0.143749997       9.45972517E-18
  0.144999996       8.70872458E-18
  0.146249995       6.29034749E-18
  0.147499993       2.20306652E-18
  0.148750007      -3.27386816E-18
  0.150000006      -9.56392759E-18
  0.151250005      -1.58231032E-17
  0.152500004      -2.10207951E-17
  0.153750002      -2.40688167E-17
  0.155000001      -2.39871029E-17
  0.156250000      -2.00861836E-17
  0.157499999      -1.21399252E-17
  0.158749998      -5.18402775E-19
  0.159999996       1.37484424E-17
  0.161249995       2.90000986E-17
  0.162499994       4.30809163E-17
  0.163749993       5.35801279E-17
  0.165000007       5.81580432E-17
  0.166250005       5.49229266E-17
  0.167500004       4.28085654E-17
  0.168750003       2.18936742E-17
  0.170000002      -6.39687636E-18
  0.171250001      -3.92610557E-17
  0.172499999      -7.26932807E-17
  0.173749998      -1.01871256E-16
  0.174999997      -1.21733352E-16
  0.176249996      -1.27690879E-16
  0.177499995      -1.16389831E-16
  0.178749993      -8.64160284E-17
  0.180000007      -3.88286587E-17
  0.181250006       2.25845569E-17
  0.182500005       9.14122192E-17
  0.183750004       1.59124470E-16
  0.185000002       2.15966257E-16
  0.186250001       2.52165652E-16
  0.187500000       2.59329301E-16
  0.188749999       2.31849435E-16
  0.189999998       1.68120211E-16
  0.191249996       7.13622677E-17
  0.192499995      -5.01199486E-17
  0.193749994      -1.83362966E-16
  0.194999993      -3.11886134E-16
  0.196250007      -4.17485281E-16
  0.197500005      -4.82514330E-16
  0.198750004      -4.92397034E-16
  0.200000003      -4.38048647E-16
  0.201250002      -3.17857213E-16
  0.202500001      -1.38892783E-16
  0.203749999       8.29207734E-17
  0.204999998       3.23822549E-16
  0.206249997       5.54427957E-16
  0.207499996       7.42977967E-16
  0.208749995       8.59306190E-16
  0.209999993       8.79065827E-16
  0.211250007       7.87676055E-16
  0.212500006       5.83418242E-16
  0.213750005       2.79171789E-16
  0.215000004      -9.75982265E-17
  0.216250002      -5.06792465E-16
  0.217500001      -8.99517438E-16
  0.218750000      -1.22350585E-15
  0.219999999      -1.42956810E-15
  0.221249998      -1.47832385E-15
  0.222499996      -1.34635770E-15
  0.223749995      -1.03092984E-15
  0.224999994      -5.52474222E-16
  0.226249993       4.56601547E-17
  0.227500007       7.00463054E-16
  0.228750005       1.33538037E-15
  0.230000004       1.86877491E-15
  0.231250003       2.22385091E-15
  0.232500002       2.33890615E-15
  0.233750001       2.17660384E-15
  0.234999999       1.73099230E-15
  0.236249998       1.03115250E-15
  0.237499997       1.40709815E-16
  0.238749996      -8.47101028E-16
  0.239999995      -1.81857974E-15
  0.241249993      -2.65211077E-15
  0.242500007      -3.23281305E-15
  0.243750006      -3.46759915E-15
  0.245000005      -3.29875901E-15
  0.246250004      -2.71420760E-15
  0.247500002      -1.75280170E-15
  0.248750001      -5.03636579E-16
  0.250000000       9.01103931E-16
  0.251249999       2.29936347E-15
  0.252499998       3.51733227E-15
  0.253749996       4.39054065E-15
  0.254999995       4.78549348E-15
  0.256249994       4.61910148E-15
  0.257499993       3.87322629E-15
  0.258749992       2.60204032E-15
  0.259999990       9.30656063E-16
  0.261249989      -9.55566667E-16
  0.262499988      -2.83042645E-15
  0.263749987      -4.45323125E-15
  0.264999986      -5.59923676E-15
  0.266250014      -6.09052010E-15
  0.267500013      -5.82322827E-15
  0.268750012      -4.78726208E-15
  0.270000011      -3.07502712E-15
  0.271250010      -8.77097482E-16
  0.272500008       1.53590536E-15
  0.273750007       3.84404643E-15
  0.275000006       5.71846469E-15
  0.276250005       6.86679022E-15
  0.277500004       7.07781747E-15
  0.278750002       6.25908051E-15
  0.280000001       4.46130602E-15
  0.281250000       1.88484143E-15
  0.282499999      -1.13486978E-15
  0.283749998      -4.16307419E-15
  0.284999996      -6.72009979E-15
  0.286249995      -8.34868877E-15
  0.287499994      -8.68605521E-15
  0.288749993      -7.53075225E-15
  0.289999992      -4.89384466E-15
  0.291249990      -1.02480748E-15
  0.292499989       3.59504923E-15
  0.293749988       8.29508005E-15
  0.294999987       1.22924310E-14
  0.296249986       1.47972370E-14
  0.297500014       1.51342714E-14
  0.298750013       1.28654259E-14
  0.300000012       7.89488324E-15
  0.301250011       5.38891043E-16
  0.302500010      -8.45569783E-15
  0.303750008      -1.79545337E-14
  0.305000007      -2.65438137E-14
  0.306250006      -3.26972370E-14
  0.307500005      -3.49867535E-14
  0.308750004      -3.23129415E-14
  0.310000002      -2.41245351E-14
  0.311250001      -1.05935692E-14
  0.312500000       7.28641204E-15
  0.313749999       2.77052263E-14
  0.314999998       4.81596608E-14
  0.316249996       6.56967495E-14
  0.317499995       7.72609244E-14
  0.318749994       8.01118883E-14
  0.319999993       7.22652664E-14
  0.321249992       5.28975803E-14
  0.322499990       2.26530305E-14
  0.323749989      -1.62055597E-14
  0.324999988      -5.98468012E-14
  0.326249987      -1.03145201E-13
  0.327499986      -1.40176187E-13
  0.328750014      -1.64896959E-13
  0.330000013      -1.71947621E-13
  0.331250012      -1.57481341E-13
  0.332500011      -1.19915173E-13
  0.333750010      -6.04885608E-14
  0.335000008       1.64734525E-14
  0.336250007       1.03670199E-13
  0.337500006       1.91346301E-13
  0.338750005       2.68212996E-13
  0.340000004       3.22703154E-13
  0.341250002       3.44440026E-13
  0.342500001       3.25757108E-13
  0.343750000       2.63075125E-13
  0.344999999       1.57938156E-13
  0.346249998       1.75277104E-14
  0.347499996      -1.45480619E-13
  0.348749995      -3.13785944E-13
  0.349999994      -4.67038409E-13
  0.351249993      -5.84010975E-13
  0.352499992      -6.45165887E-13
  0.353749990      -6.35335859E-13
  0.354999989      -5.46195738E-13
  0.356249988      -3.78183026E-13
  0.357499987      -1.41558084E-13
  0.358749986       1.43634101E-13
  0.360000014       4.48827363E-13
  0.361250013       7.39412492E-13
  0.362500012       9.78259574E-13
  0.363750011       1.12997404E-12
  0.365000010       1.16543602E-12
  0.366250008       1.06609860E-12
  0.367500007       8.27486571E-13
  0.368750006       4.61373886E-13
  0.370000005      -3.77105040E-15
  0.371250004      -5.24318436E-13
  0.372500002      -1.04501423E-12
  0.373750001      -1.50431057E-12
  0.375000000      -1.84102733E-12
  0.376249999      -2.00168766E-12
  0.377499998      -1.94770610E-12
  0.378749996      -1.66155512E-12
  0.379999995      -1.15106633E-12
  0.381249994      -4.51161596E-13
  0.382499993       3.77443384E-13
  0.383749992       1.25271234E-12
  0.384999990       2.07871350E-12
  0.386249989       2.75540615E-12
  0.387499988       3.18985940E-12
  0.388749987       3.30771912E-12
  0.389999986       3.06360254E-12
  0.391250014       2.44910732E-12
  0.392500013       1.49728103E-12
  0.393750012       2.82716721E-13
  0.395000011      -1.08312599E-12
  0.396250010      -2.46125451E-12
  0.397500008      -3.69845734E-12
  0.398750007      -4.64340719E-12
  0.400000006      -5.16394176E-12
  0.401250005      -5.16364165E-12
  0.402500004      -4.59575563E-12
  0.403750002      -3.47266877E-12
  0.405000001      -1.86948005E-12
  0.406250000       7.91859932E-14
  0.407499999       2.18930147E-12
  0.408749998       4.24388866E-12
  0.409999996       6.01443548E-12
  0.411249995       7.28523838E-12
  0.412499994       7.87817468E-12
  0.413749993       7.67515305E-12
  0.414999992       6.63557664E-12
  0.416249990       4.80653104E-12
  0.417499989       2.32403550E-12
  0.418749988      -5.95380733E-13
  0.419999987      -3.67251108E-12
  0.421249986      -6.59137545E-12
  0.422500014      -9.03087587E-12
  0.423750013      -1.06990944E-11
  0.425000012      -1.13666524E-11
  0.426250011      -1.08954061E-11
  0.427500010      -9.25906487E-12
  0.428750008      -6.55300423E-12
  0.430000007      -2.99155622E-12
  0.431250006       1.10766301E-12
  0.432500005       5.35141202E-12
  0.433750004       9.30815754E-12
  0.435000002       1.25515752E-11
  0.436250001       1.47058511E-11
  0.437500000       1.54879894E-11
  0.438749999       1.47424642E-11
  0.439999998       1.24640463E-11
  0.441249996       8.80584494E-12
  0.442499995       4.07096709E-12
  0.443749994      -1.31205441E-12
  0.444999993      -6.82816087E-12
  0.446249992      -1.19254858E-11
  0.447499990      -1.60710230E-11
  0.448749989      -1.88065848E-11
  0.449999988      -1.97991207E-11
  0.451249987      -1.88797953E-11
  0.452499986      -1.60673610E-11
  0.453750014      -1.15727211E-11
  0.455000013      -5.78364093E-12
  0.456250012       7.69428466E-13
  0.457500011       7.46335979E-12
  0.458750010       1.36433313E-11
  0.460000008       1.86886791E-11
  0.461250007       2.20767536E-11
  0.462500006       2.34380466E-11
  0.463750005       2.25966051E-11
  0.465000004       1.95911343E-11
  0.466250002       1.46743988E-11
  0.467500001       8.29051845E-12
  0.468750000       1.03239531E-12
  0.469999999      -6.41650665E-12
  0.471249998      -1.33499982E-11
  0.472499996      -1.91095421E-11
  0.473749995      -2.31497738E-11
  0.474999994      -2.50922772E-11
  0.476249993      -2.47619997E-11
  0.477499992      -2.22025592E-11
  0.478749990      -1.76690728E-11
  0.479999989      -1.15995373E-11
  0.481249988      -4.56810588E-12
  0.482499987       2.77436125E-12
  0.483749986       9.76588775E-12
  0.485000014       1.57979445E-11
  0.486250013       2.03721259E-11
  0.487500012       2.31431124E-11
  0.488750011       2.39439440E-11
  0.490000010       2.27916123E-11
  0.491250008       1.98735108E-11
  0.492500007       1.55173426E-11
  0.493750006       1.01489780E-11
  0.495000005       4.24393463E-12
  0.496250004      -1.72146672E-12
  0.497500002      -7.31346667E-12
  0.498750001      -1.21741402E-11
  0.500000000      -1.60416160E-11
  0.501250029      -1.87562431E-11
  0.502499998      -2.02538160E-11
  0.503750026      -2.05487728E-11
  0.504999995      -1.97115848E-11
  0.506250024      -1.78450865E-11
  0.507499993      -1.50646180E-11
  0.508750021      -1.14855070E-11
  0.509999990      -7.22019449E-12
  0.511250019      -2.38516693E-12
  0.512499988       2.88415125E-12
  0.513750017       8.41425020E-12
  0.514999986       1.39751379E-11
  0.516250014       1.92681478E-11
  0.517499983       2.39251535E-11
  0.518750012       2.75227723E-11
  0.519999981       2.96132702E-11
  0.521250010       2.97709565E-11
  0.522499979       2.76501027E-11
  0.523750007       2.30476662E-11
  0.524999976       1.59622593E-11
  0.526250005       6.63978638E-12
  0.527499974      -4.40338304E-12
  0.528750002      -1.63871468E-11
  0.529999971      -2.83086402E-11
  0.531250000      -3.90177508E-11
  0.532500029      -4.73227603E-11
  0.533749998      -5.21172723E-11
  0.535000026      -5.25154642E-11
  0.536249995      -4.79800331E-11
  0.537500024      -3.84261338E-11
  0.538749993      -2.42858823E-11
  0.540000021      -6.52073187E-12
  0.541249990       1.34254942E-11
  0.542500019       3.37339358E-11
  0.543749988       5.23720858E-11
  0.545000017       6.72955927E-11
  0.546249986       7.66710861E-11
  0.547500014       7.90957647E-11
  0.548749983       7.37882672E-11
  0.550000012       6.07258896E-11
  0.551249981       4.07081903E-11
  0.552500010       1.53332364E-11
  0.553749979      -1.31173232E-11
  0.555000007      -4.18784209E-11
  0.556249976      -6.79703030E-11
  0.557500005      -8.85099910E-11
  0.558749974      -1.01033015E-10
  0.560000002      -1.03789442E-10
  0.561249971      -9.59787111E-11
  0.562500000      -7.78928519E-11
  0.563750029      -5.09460044E-11
  0.564999998      -1.75802012E-11
  0.566250026       1.89489830E-11
  0.567499995       5.48894714E-11
  0.568750024       8.63818045E-11
  0.569999993       1.09880147E-10
  0.571250021       1.22558547E-10
  0.572499990       1.22656135E-10
  0.573750019       1.09718276E-10
  0.574999988       8.47018219E-11
  0.576250017       4.99258898E-11
  0.577499986       8.86698961E-12
  0.578750014      -3.41851200E-11
  0.579999983      -7.45772541E-11
  0.581250012      -1.07801448E-10
  0.582499981      -1.30006464E-10
  0.583750010      -1.38453637E-10
  0.584999979      -1.31862590E-10
  0.586250007      -1.10602930E-10
  0.587499976      -7.67039904E-11
  0.588750005      -3.36750593E-11
  0.589999974       1.38500756E-11
  0.591250002       6.06092676E-11
  0.592499971       1.01296090E-10
  0.593750000       1.31167383E-10
  0.595000029       1.46604132E-10
  0.596249998       1.45559106E-10
  0.597500026       1.27835340E-10
  0.598749995       9.51576457E-11
  0.600000024       5.10220997E-11
  0.601249993       3.34528222E-13
  0.602500021      -5.11264017E-11
  0.603749990      -9.73634090E-11
  0.605000019      -1.32858960E-10
  0.606249988      -1.53236188E-10
  0.607500017      -1.55803981E-10
  0.608749986      -1.39917231E-10
  0.610000014      -1.07104894E-10
  0.611249983      -6.09433615E-11
  0.612500012      -6.68246318E-12
  0.613749981       4.93380545E-11
  0.615000010       1.00418722E-10
  0.616249979       1.40294096E-10
  0.617500007       1.63896702E-10
  0.618749976       1.67999017E-10
  0.620000005       1.51652496E-10
  0.621249974       1.16364592E-10
  0.622500002       6.59846483E-11
  0.623749971       6.30321836E-12
  0.625000000      -5.55956670E-11
  0.626250029      -1.12158727E-10
  0.627499998      -1.56270150E-10
  0.628750026      -1.82133530E-10
  0.629999995      -1.86021268E-10
  0.631250024      -1.66796327E-10
  0.632499993      -1.26134964E-10
  0.633750021      -6.84137746E-11
  0.634999990      -2.62939600E-13
  0.636250019       7.01713132E-11
  0.637499988       1.34175712E-10
  0.638750017       1.83521864E-10
  0.639999986       2.11497417E-10
  0.641250014       2.13789375E-10
  0.642499983       1.89106855E-10
  0.643750012       1.39457765E-10
  0.644999981       7.00319316E-11
  0.646250010      -1.13092079E-11
  0.647499979      -9.48906995E-11
  0.648750007      -1.70338521E-10
  0.649999976      -2.27825370E-10
  0.651250005      -2.59302163E-10
  0.652499974      -2.59564620E-10
  0.653750002      -2.27019237E-10
  0.654999971      -1.64043779E-10
  0.656250000      -7.68807309E-11
  0.657500029       2.49422635E-11
  0.658749998       1.29615707E-10
  0.660000026       2.24372798E-10
  0.661249995       2.96990016E-10
  0.662500024       3.37291278E-10
  0.663749993       3.38476108E-10
  0.665000021       2.98105762E-10
  0.666249990       2.18614696E-10
  0.667500019       1.07265613E-10
  0.668749988      -2.44704691E-11
  0.670000017      -1.62061531E-10
  0.671249986      -2.89476831E-10
  0.672500014      -3.90998955E-10
  0.673749983      -4.53083210E-10
  0.675000012      -4.66050587E-10
  0.676249981      -4.25408681E-10
  0.677500010      -3.32631589E-10
  0.678749979      -1.95286204E-10
  0.680000007      -2.64627122E-11
  0.681249976       1.56454266E-10
  0.682500005       3.33558847E-10
  0.683749974       4.84561224E-10
  0.685000002       5.91060867E-10
  0.686249971       6.38700259E-10
  0.687500000       6.18954443E-10
  0.688750029       5.30338495E-10
  0.689999998       3.78877957E-10
  0.691250026       1.77761819E-10
  0.692499995      -5.38083120E-11
  0.693750024      -2.92475932E-10
  0.694999993      -5.13106779E-10
  0.696250021      -6.91442514E-10
  0.697499990      -8.06745837E-10
  0.698750019      -8.44145920E-10
  0.699999988      -7.96425204E-10
  0.701250017      -6.65028699E-10
  0.702499986      -4.60179506E-10
  0.703750014      -2.00058109E-10
  0.704999983       9.08830580E-11
  0.706250012       3.84301146E-10
  0.707499981       6.50810184E-10
  0.708750010       8.62984850E-10
  0.709999979       9.98212846E-10
  0.711250007       1.04109588E-09
  0.712499976       9.85122983E-10
  0.713750005       8.33462854E-10
  0.714999974       5.98751881E-10
  0.716250002       3.01934866E-10
  0.717499971      -2.97573910E-11
  0.718750000      -3.65469655E-10
  0.720000029      -6.73734346E-10
  0.721249998      -9.25552246E-10
  0.722500026      -1.09719200E-09
  0.723749995      -1.17244703E-09
  0.725000024      -1.14413301E-09
  0.726249993      -1.01467268E-09
  0.727500021      -7.95715605E-10
  0.728749990      -5.06897357E-10
  0.730000019      -1.73861800E-10
  0.731249988       1.74249504E-10
  0.732500017       5.07547671E-10
  0.733749986       7.98093369E-10
  0.735000014       1.02231801E-09
  0.736249983       1.16294274E-09
  0.737500012       1.21013566E-09
  0.738749981       1.16205223E-09
  0.740000010       1.02452791E-09
  0.741249979       8.10165435E-10
  0.742500007       5.36892253E-10
  0.743749976       2.26235031E-10
  0.745000005      -9.86018558E-11
  0.746249974      -4.14525553E-10
  0.747500002      -7.00152492E-10
  0.748749971      -9.37106837E-10
  0.750000000      -1.11081644E-09
  0.751250029      -1.21108135E-09
  0.752499998      -1.23226751E-09
  0.753750026      -1.17310750E-09
  0.754999995      -1.03658682E-09
  0.756250024      -8.29526503E-10
  0.757499993      -5.62309865E-10
  0.758750021      -2.48518733E-10
  0.759999990       9.53410267E-11
  0.761250019       4.50283949E-10
  0.762499988       7.95141397E-10
  0.763750017       1.10750054E-09
  0.764999986       1.36452893E-09
  0.766250014       1.54428337E-09
  0.767499983       1.62741443E-09
  0.768750012       1.59881008E-09
  0.769999981       1.44959678E-09
  0.771250010       1.17892929E-09
  0.772499979       7.95205957E-10
  0.773750007       3.17218501E-10
  0.774999976      -2.26328928E-10
  0.776250005      -7.97811650E-10
  0.777499974      -1.35246281E-09
  0.778750002      -1.84202931E-09
  0.779999971      -2.21861618E-09
  0.781250000      -2.43905873E-09
  0.782500029      -2.46988163E-09
  0.783749998      -2.29118946E-09
  0.785000026      -1.90063476E-09
  0.786249995      -1.31509637E-09
  0.787500024      -5.71007353E-10
  0.788749993       2.77005724E-10
  0.790000021       1.16014920E-09
  0.791249990       2.00038031E-09
  0.792500019       2.71749645E-09
  0.793749988       3.23676486E-09
  0.795000017       3.49651641E-09
  0.796249986       3.45574014E-09
  0.797500014       3.09913051E-09
  0.798749983       2.43990383E-09
  0.800000012       1.52174728E-09
  0.801249981       4.16025020E-10
  0.802500010      -7.84442622E-10
  0.803749979      -1.97228078E-09
  0.805000007      -3.03478553E-09
  0.806249976      -3.86596710E-09
  0.807500005      -4.37591563E-09
  0.808749974      -4.50326798E-09
  0.810000002      -4.21813962E-09
  0.811249971      -3.53027363E-09
  0.812500000      -2.48840348E-09
  0.813750029      -1.17887056E-09
  0.814999998       2.85550639E-10
  0.816250026       1.77091164E-09
  0.817499995       3.13711324E-09
  0.818750024       4.25119273E-09
  0.819999993       4.99906117E-09
  0.821250021       5.30048094E-09
  0.822499990       5.11361931E-09
  0.823750019       4.44476811E-09
  0.824999988       3.34561867E-09
  0.826250017       1.91227856E-09
  0.827499986       2.72545458E-10
  0.828750014      -1.42127410E-09
  0.829999983      -3.00677971E-09
  0.831250012      -4.33415348E-09
  0.832499981      -5.27381339E-09
  0.833750010      -5.73138914E-09
  0.834999979      -5.65711389E-09
  0.836250007      -5.05380493E-09
  0.837499976      -3.97460953E-09
  0.838750005      -2.51821675E-09
  0.839999974      -8.18716206E-10
  0.841250002       9.62289692E-10
  0.842499971       2.65803424E-09
  0.843750000       4.10822931E-09
  0.845000029       5.17709609E-09
  0.846249998       5.76472381E-09
  0.847500026       5.81815307E-09
  0.848749995       5.33672662E-09
  0.850000024       4.36786385E-09
  0.851249993       3.00396263E-09
  0.852500021       1.38033363E-09
  0.853749990      -3.54003910E-10
  0.855000019      -2.03134398E-09
  0.856249988      -3.50304252E-09
  0.857500017      -4.63378935E-09
  0.858749986      -5.33315836E-09
  0.860000014      -5.54781421E-09
  0.861249983      -5.26498667E-09
  0.862500012      -4.52561633E-09
  0.863749981      -3.40970563E-09
  0.865000010      -2.02862083E-09
  0.866249979      -5.13446508E-10
  0.867500007       9.95718175E-10
  0.868749976       2.36703723E-09
  0.870000005       3.49102325E-09