 -0.200000003       0.00000000    
 -0.198750004       0.00000000    
 -0.197500005       0.00000000    
 -0.196250007       0.00000000    
 -0.194999993       0.00000000    
 -0.193749994       0.00000000    
 -0.192499995       0.00000000    
 -0.191249996       0.00000000    
 -0.189999998       0.00000000    
 -0.188749999      -4.04675768E-36
 -0.187500000      -9.96592605E-35
 -0.186250001      -1.15667560E-33
 -0.185000002      -8.70964172E-33
 -0.183750004      -4.84970501E-32
 -0.182500005      -2.13989930E-31
 -0.181250006      -7.79029823E-31
 -0.180000007      -2.39497156E-30
 -0.178749993      -6.28040451E-30
 -0.177499995      -1.39779030E-29
 -0.176249996      -2.55560552E-29
 -0.174999997      -3.40575523E-29
 -0.173749998      -1.29040902E-29
 -0.172499999       1.07022410E-28
 -0.171250001       4.70685578E-28
 -0.170000002       1.33331244E-27
 -0.168750003       3.06857648E-27
 -0.167500004       6.09644611E-27
 -0.166250005       1.06473920E-26
 -0.165000007       1.62639684E-26
 -0.163749993       2.09660401E-26
 -0.162499994       2.01072448E-26
 -0.161249995       5.15901936E-27
 -0.159999996      -3.70193903E-26
 -0.158749998      -1.23478499E-25
 -0.157499999      -2.71771284E-25
 -0.156250000      -4.92523926E-25
 -0.155000001      -7.77189067E-25
 -0.153750002      -1.08155532E-24
 -0.152500004      -1.30793671E-24
 -0.151250005      -1.29212862E-24
 -0.150000006      -8.04534585E-25
 -0.148750007       4.22875791E-25
 -0.147499993       2.63263533E-24
 -0.146249995       5.93488576E-24
 -0.144999996       1.01627262E-23
 -0.143749997       1.47123442E-23
 -0.142499998       1.84119078E-23
 -0.141249999       1.94837868E-23
 -0.140000001       1.56768703E-23
 -0.138750002       4.63988973E-24
 -0.137500003      -1.54261119E-23
 -0.136250004      -4.48632833E-23
 -0.135000005      -8.15230253E-23
 -0.133750007      -1.19837753E-22
 -0.132499993      -1.50337716E-22
 -0.131249994      -1.60010880E-22
 -0.129999995      -1.33875729E-22
 -0.128749996      -5.79846592E-23
 -0.127499998       7.62185795E-23
 -0.126249999       2.66685246E-22
 -0.125000000       4.95678995E-22
 -0.123750001       7.26263215E-22
 -0.122500002       9.02067216E-22
 -0.121250004       9.51971996E-22
 -0.119999997       8.00816200E-22
 -0.118749999       3.86152209E-22
 -0.117500000      -3.20466173E-22
 -0.116250001      -1.29099781E-21
 -0.115000002      -2.42228735E-21
 -0.113750003      -3.52750809E-21
 -0.112499997      -4.34394868E-21
 -0.111249998      -4.56195682E-21
 -0.109999999      -3.87664737E-21
 -0.108750001      -2.05918071E-21
 -0.107500002       9.61414194E-22
 -0.106250003       5.02069309E-21
 -0.104999997       9.66474920E-21
 -0.103749998       1.41403618E-20
 -0.102499999       1.74472505E-20
 -0.101250000       1.84625582E-20
 -0.100000001       1.61350464E-20
  -9.87500027E-02   9.73033153E-21
  -9.74999964E-02  -9.08619937E-22
  -9.62499976E-02  -1.51361240E-20
  -9.49999988E-02  -3.13720041E-20
  -9.37500000E-02  -4.71198072E-20
  -9.25000012E-02  -5.91766626E-20
  -9.12500024E-02  -6.40488081E-20
  -9.00000036E-02  -5.85483543E-20
  -8.87499973E-02  -4.05031895E-20
  -8.74999985E-02  -9.47020666E-21
  -8.62499997E-02   3.26877738E-20
  -8.50000009E-02   8.15107265E-20
  -8.37500021E-02   1.30067069E-19
  -8.25000033E-02   1.69578902E-19
  -8.12499970E-02   1.90553333E-19
  -7.99999982E-02   1.84330207E-19
  -7.87499994E-02   1.44856670E-19
  -7.75000006E-02   7.04122181E-20
  -7.62500018E-02  -3.50449187E-20
  -7.50000030E-02  -1.61240792E-19
  -7.37499967E-02  -2.91929331E-19
  -7.24999979E-02  -4.06365116E-19
  -7.12499991E-02  -4.81878977E-19
  -7.00000003E-02  -4.97326627E-19
  -6.87500015E-02  -4.36979303E-19
  -6.75000027E-02  -2.94265651E-19
  -6.62499964E-02  -7.46895302E-20
  -6.49999976E-02   2.02728578E-19
  -6.37499988E-02   5.05998271E-19
  -6.25000000E-02   7.92951362E-19
  -6.12500012E-02   1.01619583E-18
  -5.99999987E-02   1.12976783E-18
  -5.87499999E-02   1.09665651E-18
  -5.75000010E-02   8.96106988E-19
  -5.62499985E-02   5.29475467E-19
  -5.49999997E-02   2.34751564E-20
  -5.37500009E-02  -5.70086106E-19
  -5.24999984E-02  -1.17852465E-18
  -5.12499996E-02  -1.71632377E-18
  -5.00000007E-02  -2.09623325E-18
  -4.87499982E-02  -2.24207264E-18
  -4.74999994E-02  -2.10145090E-18
  -4.62500006E-02  -1.65642080E-18
  -4.50000018E-02  -9.30184658E-19
  -4.37499993E-02   1.16099710E-20
  -4.25000004E-02   1.06575791E-18
  -4.12500016E-02   2.10245075E-18
  -3.99999991E-02   2.98122779E-18
  -3.87500003E-02   3.56997793E-18
  -3.75000015E-02   3.76439722E-18
  -3.62499990E-02   3.50500538E-18
  -3.50000001E-02   2.78897116E-18
  -3.37500013E-02   1.67455539E-18
  -3.24999988E-02   2.76969279E-19
  -3.12500000E-02  -1.24433203E-18
  -2.99999993E-02  -2.70556303E-18
  -2.87500005E-02  -3.92316172E-18
  -2.74999999E-02  -4.73951578E-18
  -2.62499992E-02  -5.04598537E-18
  -2.50000004E-02  -4.79951822E-18
  -2.37499997E-02  -4.02995198E-18
  -2.25000009E-02  -2.83639322E-18
  -2.12500002E-02  -1.37274717E-18
  -1.99999996E-02   1.75759298E-19
  -1.87500007E-02   1.62160353E-18
  -1.75000001E-02   2.80492582E-18
  -1.62499994E-02   3.61932918E-18
  -1.49999997E-02   4.02876249E-18
  -1.37499999E-02   4.07191692E-18
  -1.25000002E-02   3.85245929E-18
  -1.12500004E-02   3.51580339E-18
  -9.99999978E-03   3.21561707E-18
  -8.75000004E-03   3.07547158E-18
  -7.49999983E-03   3.15256626E-18
  -6.25000009E-03   3.41095577E-18
  -4.99999989E-03   3.71096342E-18
  -3.74999992E-03   3.81946636E-18
  -2.49999994E-03   3.44265168E-18
  -1.24999997E-03   2.27902445E-18
   0.00000000       8.64709991E-20
   1.24999997E-03  -3.24636523E-18
   2.49999994E-03  -7.63657277E-18
   3.74999992E-03  -1.27642985E-17
   4.99999989E-03  -1.80626550E-17
   6.25000009E-03  -2.27486133E-17
   7.49999983E-03  -2.58980539E-17
   8.75000004E-03  -2.65615470E-17
   9.99999978E-03  -2.39103256E-17
   1.12500004E-02  -1.73952840E-17
   1.25000002E-02  -6.89680240E-18
   1.37499999E-02   7.15930445E-18
   1.49999997E-02   2.37435065E-17
   1.62499994E-02   4.12412500E-17
   1.75000001E-02   5.75597931E-17
   1.87500007E-02   7.03234281E-17
   1.99999996E-02   7.71446109E-17
   2.12500002E-02   7.59458078E-17
   2.25000009E-02   6.52957119E-17
   2.37499997E-02   4.47158619E-17
   2.50000004E-02   1.49111498E-17
   2.62499992E-02  -2.21188576E-17
   2.74999999E-02  -6.31210276E-17
   2.87500005E-02  -1.03799712E-16
   2.99999993E-02  -1.39195029E-16
   3.12500000E-02  -1.64203279E-16
   3.24999988E-02  -1.74192220E-16
   3.37500013E-02  -1.65645221E-16
   3.50000001E-02  -1.36756143E-16
   3.62499990E-02  -8.78930289E-17
   3.75000015E-02  -2.18550018E-17
   3.87500003E-02   5.61359770E-17
   3.99999991E-02   1.38740675E-16
   4.12500016E-02   2.17103994E-16
   4.25000004E-02   2.81713841E-16
   4.37499993E-02   3.23442760E-16
   4.50000018E-02   3.34666741E-16
   4.62500006E-02   3.10334767E-16
   4.74999994E-02   2.48855395E-16
   4.87499982E-02   1.52674645E-16
   5.00000007E-02   2.84440149E-17
   5.12499996E-02  -1.13283100E-16
   5.24999984E-02  -2.58838578E-16
   5.37500009E-02  -3.92665681E-16
   5.49999997E-02  -4.98883242E-16
   5.62499985E-02  -5.63038629E-16
   5.75000010E-02  -5.73864822E-16
   5.87499999E-02  -5.24839614E-16
   5.99999987E-02  -4.15352055E-16
   6.12500012E-02  -2.51309673E-16
   6.25000000E-02  -4.50706132E-17
   6.37499988E-02   1.85346055E-16
   6.49999976E-02   4.17741615E-16
   6.62499964E-02   6.27798533E-16
   6.75000027E-02   7.91535719E-16
   6.87500015E-02   8.87916051E-16
   7.00000003E-02   9.01329453E-16
   7.12499991E-02   8.23670826E-16
   7.24999979E-02   6.55757608E-16
   7.37499967E-02   4.07888663E-16
   7.50000030E-02   9.94284000E-17
   7.62500018E-02  -2.42601592E-16
   7.75000006E-02  -5.85833080E-16
   7.87499994E-02  -8.95571429E-16
   7.99999982E-02  -1.13824499E-15
   8.12499970E-02  -1.28494284E-15
   8.25000033E-02  -1.31467137E-15
   8.37500021E-02  -1.21697268E-15
   8.50000009E-02  -9.93595588E-16
   8.62499997E-02  -6.58998886E-16
   8.74999985E-02  -2.39574772E-16
   8.87499973E-02   2.28386023E-16
   9.00000036E-02   7.01836942E-16
   9.12500024E-02   1.13495130E-15
   9.25000012E-02   1.48356042E-15
   9.37500000E-02   1.70961869E-15
   9.49999988E-02   1.78524433E-15
   9.62499976E-02   1.69590851E-15
   9.74999964E-02   1.44241865E-15
   9.87500027E-02   1.04145401E-15
  0.100000001       5.24549981E-16
  0.101250000      -6.44175306E-17
  0.102499999      -6.73043645E-16
  0.103749998      -1.24516120E-15
  0.104999997      -1.72611593E-15
  0.106250003      -2.06804407E-15
  0.107500002      -2.23463004E-15
  0.108750001      -2.20486805E-15
  0.109999999      -1.97543457E-15
  0.111249998      -1.56141566E-15
  0.112499997      -9.95289018E-16
  0.113750003      -3.24230024E-16
  0.115000002       3.94018339E-16
  0.116250001       1.09633211E-15
  0.117500000       1.71995927E-15
  0.118749999       2.20829282E-15
  0.119999997       2.51611010E-15
  0.121250004       2.61377808E-15
  0.122500002       2.49002360E-15
  0.123750001       2.15300677E-15
  0.125000000       1.62960605E-15
  0.126249999       9.62991334E-16
  0.127499998       2.08733019E-16
  0.128749996      -5.70172817E-16
  0.129999995      -1.30887999E-15
  0.131249994      -1.94634047E-15
  0.132499993      -2.43050196E-15
  0.133750007      -2.72258709E-15
  0.135000005      -2.80009293E-15
  0.136250004      -2.65828161E-15
  0.137500003      -2.31008839E-15
  0.138750002      -1.78452563E-15
  0.140000001      -1.12380266E-15
  0.141249999      -3.79488601E-16
  0.142499998       3.91883737E-16
  0.143749997       1.13335285E-15
  0.144999996       1.79180164E-15
  0.146249995       2.32162922E-15
  0.147499993       2.68757456E-15
  0.148750007       2.86655219E-15
  0.150000006       2.84847164E-15
  0.151250005       2.63611434E-15
  0.152500004       2.24421697E-15
  0.153750002       1.69796087E-15
  0.155000001       1.03107584E-15
  0.156250000       2.83753682E-16
  0.157499999      -4.99481088E-16
  0.158749998      -1.27185184E-15
  0.159999996      -1.98633334E-15
  0.161249995      -2.59760166E-15
  0.162499994      -3.06398414E-15
  0.163749993      -3.34946706E-15
  0.165000007      -3.42579341E-15
  0.166250005      -3.27462366E-15
  0.167500004      -2.88966476E-15
  0.168750003      -2.27858681E-15
  0.170000002      -1.46447793E-15
  0.171250001      -4.86539537E-16
  0.172499999       6.00283621E-16
  0.173749998       1.72700341E-15
  0.174999997       2.81378945E-15
  0.176249996       3.77470111E-15
  0.177499995       4.52380011E-15
  0.178749993       4.98230031E-15
  0.180000007       5.08620966E-15
  0.181250006       4.79377619E-15
  0.182500005       4.09193528E-15
  0.183750004       3.00094731E-15
  0.185000002       1.57648173E-15
  0.186250001      -9.14153889E-17
  0.187500000      -1.88277700E-15
  0.188749999      -3.65556254E-15
  0.189999998      -5.25649843E-15
  0.191249996      -6.53414260E-15
  0.192499995      -7.35307946E-15
  0.193749994      -7.60791780E-15
  0.194999993      -7.23564427E-15
  0.196250007      -6.22493703E-15
  0.197500005      -4.62120974E-15
  0.198750004      -2.52653453E-15
  0.200000003      -9.40336737E-17
  0.201250002       2.48310271E-15
  0.202500001       4.98724953E-15
  0.203749999       7.19535685E-15
  0.204999998       8.89962779E-15
  0.206249997       9.92787836E-15
  0.207499996       1.01614816E-14
  0.208749995       9.54895647E-15
  0.209999993       8.11360155E-15
  0.211250007       5.95411349E-15
  0.212500006       3.23782855E-15
  0.213750005       1.86975614E-16
  0.215000004      -2.94091152E-15
  0.216250002      -5.87661421E-15
  0.217500001      -8.36457656E-15
  0.218750000      -1.01874211E-14
  0.219999999      -1.11870716E-14
  0.221249998      -1.12802257E-14
  0.222499996      -1.04664617E-14
  0.223749995      -8.82801793E-15
  0.224999994      -6.52116944E-15
  0.226249993      -3.76005464E-15
  0.227500007      -7.94623737E-16
  0.228750005       2.11492247E-15
  0.230000004       4.72442706E-15
  0.231250003       6.82990872E-15
  0.232500002       8.28686214E-15
  0.233750001       9.02258225E-15
  0.234999999       9.04016750E-15
  0.236249998       8.41382136E-15
  0.237499997       7.27608247E-15
  0.238749996       5.79861603E-15
  0.239999995       4.16895302E-15
  0.241249993       2.56610516E-15
  0.242500007       1.13813234E-15
  0.243750006      -1.54592380E-17
  0.245000005      -8.54192176E-16
  0.246250004      -1.39854478E-15
  0.247500002      -1.72299006E-15
  0.248750001      -1.94095673E-15
  0.250000000      -2.18360943E-15
  0.251249999      -2.57526116E-15
  0.252499998      -3.20874800E-15
  0.253749996      -4.12428050E-15
  0.254999995      -5.29496601E-15
  0.256249994      -6.62151828E-15
  0.257499993      -7.93755337E-15
  0.258749992      -9.02557566E-15
  0.259999990      -9.64233254E-15
  0.261249989      -9.55096564E-15
  0.262499988      -8.55620930E-15
  0.263749987      -6.53832482E-15
  0.264999986      -3.48122495E-15
  0.266250014       5.09346428E-16
  0.267500013       5.20077764E-15
  0.268750012       1.02436023E-14
  0.270000011       1.51967265E-14
  0.271250010       1.95661900E-14
  0.272500008       2.28541551E-14
  0.273750007       2.46132968E-14
  0.275000006       2.45008109E-14
  0.276250005       2.23259555E-14
  0.277500004       1.80852105E-14
  0.278750002       1.19803662E-14
  0.280000001       4.41620490E-15
  0.281250000      -4.02335822E-15
  0.282499999      -1.26195737E-14
  0.283749998      -2.05800868E-14
  0.284999996      -2.71118458E-14
  0.286249995      -3.14986989E-14
  0.287499994      -3.31758343E-14
  0.288749993      -3.17934054E-14
  0.289999992      -2.72620925E-14
  0.291249990      -1.97753411E-14
  0.292499989      -9.80500522E-15
  0.293749988       1.93048888E-15
  0.294999987       1.45229152E-14
  0.296249986       2.69517685E-14
  0.297500014       3.81750566E-14
  0.298750013       4.72251226E-14
  0.300000012       5.33004291E-14
  0.301250011       5.58438793E-14
  0.302500010       5.46002080E-14
  0.303750008       4.96467186E-14
  0.305000007       4.13933516E-14
  0.306250006       3.05522243E-14
  0.307500005       1.80789171E-14
  0.308750004       5.09108475E-15
  0.310000002      -7.22857748E-15
  0.311250001      -1.77353927E-14
  0.312500000      -2.54224962E-14
  0.313749999      -2.95083917E-14
  0.314999998      -2.95031774E-14
  0.316249996      -2.52485631E-14
  0.317499995      -1.69287869E-14
  0.318749994      -5.04996893E-15
  0.319999993       9.60747120E-15
  0.321249992       2.60603899E-14
  0.322499990       4.32099492E-14
  0.323749989       5.99361598E-14
  0.324999988       7.51919076E-14
  0.326249987       8.80878758E-14
  0.327499986       9.79607359E-14
  0.328750014       1.04418766E-13
  0.330000013       1.07363764E-13
  0.331250012       1.06985371E-13
  0.332500011       1.03732717E-13
  0.333750010       9.82657220E-14
  0.335000008       9.13898135E-14
  0.336250007       8.39854106E-14
  0.337500006       7.69354402E-14
  0.338750005       7.10549309E-14
  0.340000004       6.70338283E-14
  0.341250002       6.53952261E-14
  0.342500001       6.64694604E-14
  0.343750000       7.03881804E-14
  0.344999999       7.70945265E-14
  0.346249998       8.63686157E-14
  0.347499996       9.78620939E-14
  0.348749995       1.11143706E-13
  0.349999994       1.25735387E-13
  0.351249993       1.41157268E-13
  0.352499992       1.56963919E-13
  0.353749990       1.72775300E-13
  0.354999989       1.88289637E-13
  0.356249988       2.03290022E-13
  0.357499987       2.17644194E-13
  0.358749986       2.31284637E-13
  0.360000014       2.44202689E-13
  0.361250013       2.56420942E-13
  0.362500012       2.67972954E-13
  0.363750011       2.78891303E-13
  0.365000010       2.89188432E-13
  0.366250008       2.98855857E-13
  0.367500007       3.07854816E-13
  0.368750006       3.16131859E-13
  0.370000005       3.23623344E-13
  0.371250004       3.30278827E-13
  0.372500002       3.36073373E-13
  0.373750001       3.41043654E-13
  0.375000000       3.45298009E-13
  0.376249999       3.49022569E-13
  0.377499998       3.52482746E-13
  0.378749996       3.56017299E-13
  0.379999995       3.60025920E-13
  0.381249994       3.64957386E-13
  0.382499993       3.71233589E-13
  0.383749992       3.79248065E-13
  0.384999990       3.89302956E-13
  0.386249989       4.01574932E-13
  0.387499988       4.16087520E-13
  0.388749987       4.32667519E-13
  0.389999986       4.50964434E-13
  0.391250014       4.70439985E-13
  0.392500013       4.90385618E-13
  0.393750012       5.09966364E-13
  0.395000011       5.28309655E-13
  0.396250010       5.44544282E-13
  0.397500008       5.57882354E-13
  0.398750007       5.67752442E-13
  0.400000006       5.73782721E-13
  0.401250005       5.75904884E-13
  0.402500004       5.74386133E-13
  0.403750002       5.69834436E-13
  0.405000001       5.63173748E-13
  0.406250000       5.55543242E-13
  0.407499999       5.48265426E-13
  0.408749998       5.42649421E-13
  0.409999996       5.39895873E-13
  0.411249995       5.41024311E-13
  0.412499994       5.46626275E-13
  0.413749993       5.56912643E-13
  0.414999992       5.71556311E-13
  0.416249990       5.89761258E-13
  0.417499989       6.10281411E-13
  0.418749988       6.31480057E-13
  0.419999987       6.51497736E-13
  0.421249986       6.68428691E-13
  0.422500014       6.80547795E-13
  0.423750013       6.86368551E-13
  0.425000012       6.84919948E-13
  0.426250011       6.75823655E-13
  0.427500010       6.59372784E-13
  0.428750008       6.36546642E-13
  0.430000007       6.09039024E-13
  0.431250006       5.79062080E-13
  0.432500005       5.49143576E-13
  0.433750004       5.21898551E-13
  0.435000002       4.99771828E-13
  0.436250001       4.84951109E-13
  0.437500000       4.78951134E-13
  0.438749999       4.82583591E-13
  0.439999998       4.95713442E-13
  0.441249996       5.17394125E-13
  0.442499995       5.45830362E-13
  0.443749994       5.78459806E-13
  0.444999993       6.12312284E-13
  0.446249992       6.44122451E-13
  0.447499990       6.70764876E-13
  0.448749989       6.89472730E-13
  0.449999988       6.98147378E-13
  0.451249987       6.95613218E-13
  0.452499986       6.81684310E-13
  0.453750014       6.57250838E-13
  0.455000013       6.24188852E-13
  0.456250012       5.85207609E-13
  0.457500011       5.43651170E-13
  0.458750010       5.03160773E-13
  0.460000008       4.67410832E-13
  0.461250007       4.39584350E-13
  0.462500006       4.22216027E-13
  0.463750005       4.17000717E-13
  0.465000004       4.24719884E-13
  0.466250002       4.44980017E-13
  0.467500001       4.76482352E-13
  0.468750000       5.17057480E-13
  0.469999999       5.63901627E-13
  0.471249998       6.13717139E-13
  0.472499996       6.63353107E-13
  0.473749995       7.09953147E-13
  0.474999994       7.51216418E-13
  0.476249993       7.85374912E-13
  0.477499992       8.11999448E-13
  0.478749990       8.31075551E-13
  0.479999989       8.43657826E-13
  0.481249988       8.51525447E-13
  0.482499987       8.57008258E-13
  0.483749986       8.62816546E-13
  0.485000014       8.71209138E-13
  0.486250013       8.84370919E-13
  0.487500012       9.03964729E-13
  0.488750011       9.30844811E-13
  0.490000010       9.65444955E-13
  0.491250008       1.00742787E-12
  0.492500007       1.05587349E-12
  0.493750006       1.10956025E-12
  0.495000005       1.16707935E-12
  0.496250004       1.22703898E-12
  0.497500002       1.28855444E-12
  0.498750001       1.35109903E-12
  0.500000000       1.41408163E-12
  0.501250029       1.47739254E-12
  0.502499998       1.54117062E-12
  0.503750026       1.60531647E-12
  0.504999995       1.66963535E-12
  0.506250024       1.73372536E-12
  0.507499993       1.79712820E-12
  0.508750021       1.85870308E-12
  0.509999990       1.91699955E-12
  0.511250019       1.97013608E-12
  0.512499988       2.01610278E-12
  0.513750017       2.05265774E-12
  0.514999986       2.07814083E-12
  0.516250014       2.09113933E-12
  0.517499983       2.09091295E-12
  0.518750012       2.07793375E-12
  0.519999981       2.05341473E-12
  0.521250010       2.01989489E-12
  0.522499979       1.98054550E-12
  0.523750007       1.93937227E-12
  0.524999976       1.90086250E-12
  0.526250005       1.86957654E-12
  0.527499974       1.84904934E-12
  0.528750002       1.84204041E-12
  0.529999971       1.85038508E-12
  0.531250000       1.87408921E-12
  0.532500029       1.91161214E-12
  0.533749998       1.95993569E-12
  0.535000026       2.01528486E-12
  0.536249995       2.07254960E-12
  0.537500024       2.12649321E-12
  0.538749993       2.17220079E-12
  0.540000021       2.20531688E-12
  0.541249990       2.22231370E-12
  0.542500019       2.22078410E-12
  0.543749988       2.20020877E-12
  0.545000017       2.16147651E-12
  0.546249986       2.10705758E-12
  0.547500014       2.04018464E-12
  0.548749983       1.96496985E-12
  0.550000012       1.88583936E-12
  0.551249981       1.80684157E-12
  0.552500010       1.73149277E-12
  0.553749979       1.66262013E-12
  0.555000007       1.60145334E-12
  0.556249976       1.54836560E-12
  0.557500005       1.50206887E-12
  0.558749974       1.46060215E-12
  0.560000002       1.42127130E-12
  0.561249971       1.38113175E-12
  0.562500000       1.33706566E-12
  0.563750029       1.28669731E-12
  0.564999998       1.22862224E-12
  0.566250026       1.16245273E-12
  0.567499995       1.08918246E-12
  0.568750024       1.01054191E-12
  0.569999993       9.29324543E-13
  0.571250021       8.47952622E-13
  0.572499990       7.69689434E-13
  0.573750019       6.97008640E-13
  0.574999988       6.31211988E-13
  0.576250017       5.72484876E-13
  0.577499986       5.18997985E-13
  0.578750014       4.68119900E-13
  0.579999983       4.16276307E-13
  0.581250012       3.58957276E-13
  0.582499981       2.92220241E-13
  0.583750010       2.12263583E-13
  0.584999979       1.16800490E-13
  0.586250007       5.45143629E-15
  0.587499976      -1.20970806E-13
  0.588750005      -2.59162673E-13
  0.589999974      -4.04216618E-13
  0.591250002      -5.49090721E-13
  0.592499971      -6.85829865E-13
  0.593750000      -8.06841031E-13
  0.595000029      -9.04859087E-13
  0.596249998      -9.74528943E-13
  0.597500026      -1.01240370E-12
  0.598749995      -1.01768800E-12
  0.600000024      -9.92997459E-13
  0.601249993      -9.43567598E-13
  0.602500021      -8.77058734E-13
  0.603749990      -8.03024964E-13
  0.605000019      -7.31293498E-13
  0.606249988      -6.71982652E-13
  0.607500017      -6.34305000E-13
  0.608749986      -6.25058382E-13
  0.610000014      -6.47715876E-13
  0.611249983      -7.02273038E-13
  0.612500012      -7.84507604E-13
  0.613749981      -8.86458116E-13
  0.615000010      -9.97814461E-13
  0.616249979      -1.10617711E-12
  0.617500007      -1.19916522E-12
  0.618749976      -1.26414179E-12
  0.620000005      -1.29085187E-12
  0.621249974      -1.27199347E-12
  0.622500002      -1.20537749E-12
  0.623749971      -1.09314348E-12
  0.625000000      -9.42215164E-13
  0.626250029      -7.63303429E-13
  0.627499998      -5.70508864E-13
  0.628750026      -3.78800615E-13
  0.629999995      -2.03847112E-13
  0.631250024      -5.90546424E-14
  0.632499993       4.50297284E-14
  0.633750021       1.02328316E-13
  0.634999990       1.11835190E-13
  0.636250019       7.75543299E-14
  0.637499988       8.75750498E-15
  0.638750017      -8.17194213E-14
  0.639999986      -1.78106770E-13
  0.641250014      -2.63675366E-13
  0.642499983      -3.22188348E-13
  0.643750012      -3.40318946E-13
  0.644999981      -3.08105809E-13
  0.646250010      -2.20347151E-13
  0.647499979      -7.67821272E-14
  0.648750007       1.17162722E-13
  0.649999976       3.50868450E-13
  0.651250005       6.09768746E-13
  0.652499974       8.76588407E-13
  0.653750002       1.13343124E-12
  0.654999971       1.36322832E-12
  0.656250000       1.55165594E-12
  0.657500029       1.68805876E-12
  0.658749998       1.76676924E-12
  0.660000026       1.78750450E-12
  0.661249995       1.75565096E-12
  0.662500024       1.68161036E-12
  0.663749993       1.57980226E-12
  0.665000021       1.46590335E-12
  0.666249990       1.35715614E-12
  0.667500019       1.26874759E-12
  0.668749988       1.21379111E-12
  0.670000017       1.20074935E-12
  0.671249986       1.23384896E-12
  0.672500014       1.31197960E-12
  0.673749983       1.42859173E-12
  0.675000012       1.57250189E-12
  0.676249981       1.73012028E-12
  0.677500010       1.88652566E-12
  0.678749979       2.02633179E-12
  0.680000007       2.13632042E-12
  0.681249976       2.20571716E-12
  0.682500005       2.22774251E-12
  0.683749974       2.20038397E-12
  0.685000002       2.12684471E-12
  0.686249971       2.01419979E-12
  0.687500000       1.87367309E-12
  0.688750029       1.71926590E-12
  0.689999998       1.56623737E-12
  0.691250026       1.42900850E-12
  0.692499995       1.32048810E-12
  0.693750024       1.24928659E-12
  0.694999993       1.22207799E-12
  0.696250021       1.24005743E-12
  0.697499990       1.30003495E-12
  0.698750019       1.39532125E-12
  0.699999988       1.51572244E-12
  0.701250017       1.64979944E-12
  0.702499986       1.78420874E-12
  0.703750014       1.90734407E-12
  0.704999983       2.00905026E-12
  0.706250012       2.08243839E-12
  0.707499981       2.12326185E-12
  0.708750010       2.13135412E-12
  0.709999979       2.10939144E-12
  0.711250007       2.06248863E-12
  0.712499976       1.99817224E-12
  0.713750005       1.92480385E-12
  0.714999974       1.85128974E-12
  0.716250002       1.78502016E-12
  0.717499971       1.73236132E-12
  0.718750000       1.69691203E-12
  0.720000029       1.68038370E-12
  0.721249998       1.68286077E-12
  0.722500026       1.70177501E-12
  0.723749995       1.73356305E-12
  0.725000024       1.77431854E-12
  0.726249993       1.81979258E-12
  0.727500021       1.86639810E-12
  0.728749990       1.91203650E-12
  0.730000019       1.95501276E-12
  0.731249988       1.99546759E-12
  0.732500017       2.03429808E-12
  0.733749986       2.07321313E-12
  0.735000014       2.11394530E-12
  0.736249983       2.15865867E-12
  0.737500012       2.20943793E-12
  0.738749981       2.26818477E-12
  0.740000010       2.33598340E-12
  0.741249979       2.41289519E-12
  0.742500007       2.49806079E-12
  0.743749976       2.58877121E-12
  0.745000005       2.68273077E-12
  0.746249974       2.77713616E-12
  0.747500002       2.86887484E-12
  0.748749971       2.95658029E-12
  0.750000000       3.03921059E-12
  0.751250029       3.11574204E-12
  0.752499998       3.18628262E-12
  0.753750026       3.25299683E-12
  0.754999995       3.31911473E-12
  0.756250024       3.38576324E-12
  0.757499993       3.45616786E-12
  0.758750021       3.53187770E-12
  0.759999990       3.61482957E-12
  0.761250019       3.70615040E-12
  0.762499988       3.80624612E-12
  0.763750017       3.91494085E-12
  0.764999986       4.03103722E-12
  0.766250014       4.15366916E-12
  0.767499983       4.28216750E-12
  0.768750012       4.41616318E-12
  0.769999981       4.55563148E-12
  0.771250010       4.70149657E-12
  0.772499979       4.85473510E-12
  0.773750007       5.01633500E-12
  0.774999976       5.18693291E-12
  0.776250005       5.36812608E-12
  0.777499974       5.55989239E-12
  0.778750002       5.76125085E-12
  0.779999971       5.96928063E-12
  0.781250000       6.17949355E-12
  0.782500029       6.38629774E-12
  0.783749998       6.58282933E-12
  0.785000026       6.76205533E-12
  0.786249995       6.91717213E-12
  0.787500024       7.04226477E-12
  0.788749993       7.13252027E-12
  0.790000021       7.18550696E-12
  0.791249990       7.20052013E-12
  0.792500019       7.17981360E-12
  0.793749988       7.12719987E-12
  0.795000017       7.04835018E-12
  0.796249986       6.95107730E-12
  0.797500014       6.84440525E-12
  0.798749983       6.73692569E-12
  0.800000012       6.63637591E-12
  0.801249981       6.54861538E-12
  0.802500010       6.47704329E-12
  0.803749979       6.42156597E-12
  0.805000007       6.37875516E-12
  0.806249976       6.34232077E-12
  0.807500005       6.30363253E-12
  0.808749974       6.25336631E-12
  0.810000002       6.18167193E-12
  0.811249971       6.08017369E-12
  0.812500000       5.94247698E-12
  0.813750029       5.76538903E-12
  0.814999998       5.54921994E-12
  0.816250026       5.29879612E-12
  0.817499995       5.02244643E-12
  0.818750024       4.73115731E-12
  0.819999993       4.43770801E-12
  0.821250021       4.15573348E-12
  0.822499990       3.89792885E-12
  0.823750019       3.67431346E-12
  0.824999988       3.49155405E-12
  0.826250017       3.35153801E-12
  0.827499986       3.25144837E-12
  0.828750014       3.18377291E-12
  0.829999983       3.13689656E-12
  0.831250012       3.09647100E-12
  0.832499981       3.04688089E-12
  0.833750010       2.97208785E-12
  0.834999979       2.85788494E-12
  0.836250007       2.69312133E-12
  0.837499976       2.47096137E-12
  0.838750005       2.19084603E-12
  0.839999974       1.85711386E-12
  0.841250002       1.47910297E-12
  0.842499971       1.07159323E-12
  0.843750000       6.52031434E-13
  0.845000029       2.39613098E-13
  0.846249998      -1.47168207E-13
  0.847500026      -4.93574745E-13
  0.848749995      -7.90366741E-13
  0.850000024      -1.03281869E-12
  0.851249993      -1.22359013E-12
  0.852500021      -1.37043979E-12
  0.853749990      -1.48719437E-12
  0.855000019      -1.59173261E-12
  0.856249988      -1.70444008E-12
  0.857500017      -1.84533638E-12
  0.858749986      -2.03178360E-12
  0.860000014      -2.27674021E-12
  0.861249983      -2.58704213E-12
  0.862500012      -2.96513985E-12
  0.863749981      -3.40665777E-12
  0.865000010      -3.90015928E-12
  0.866249979      -4.43073226E-12
  0.867500007      -4.97813206E-12
  0.868749976      -5.52095912E-12
  0.870000005      -6.03802902E-12