 -0.200000003       0.00000000    
 -0.198750004       0.00000000    
 -0.197500005       0.00000000    
 -0.196250007       0.00000000    
 -0.194999993       0.00000000    
 -0.193749994       0.00000000    
 -0.192499995       0.00000000    
 -0.191249996       0.00000000    
 -0.189999998       0.00000000    
 -0.188749999       0.00000000    
 -0.187500000       0.00000000    
 -0.186250001       0.00000000    
 -0.185000002       0.00000000    
 -0.183750004       0.00000000    
 -0.182500005       0.00000000    
 -0.181250006       0.00000000    
 -0.180000007       0.00000000    
 -0.178749993       0.00000000    
 -0.177499995       0.00000000    
 -0.176249996       0.00000000    
 -0.174999997       0.00000000    
 -0.173749998       0.00000000    
 -0.172499999       0.00000000    
 -0.171250001       0.00000000    
 -0.170000002       0.00000000    
 -0.168750003       0.00000000    
 -0.167500004       0.00000000    
 -0.166250005       0.00000000    
 -0.165000007       0.00000000    
 -0.163749993       0.00000000    
 -0.162499994       0.00000000    
 -0.161249995       0.00000000    
 -0.159999996       0.00000000    
 -0.158749998       0.00000000    
 -0.157499999       0.00000000    
 -0.156250000       0.00000000    
 -0.155000001       0.00000000    
 -0.153750002       0.00000000    
 -0.152500004       0.00000000    
 -0.151250005       0.00000000    
 -0.150000006       0.00000000    
 -0.148750007       0.00000000    
 -0.147499993       0.00000000    
 -0.146249995       0.00000000    
 -0.144999996       0.00000000    
 -0.143749997       0.00000000    
 -0.142499998       0.00000000    
 -0.141249999       0.00000000    
 -0.140000001       0.00000000    
 -0.138750002       0.00000000    
 -0.137500003       0.00000000    
 -0.136250004       0.00000000    
 -0.135000005       0.00000000    
 -0.133750007       0.00000000    
 -0.132499993       0.00000000    
 -0.131249994       0.00000000    
 -0.129999995       0.00000000    
 -0.128749996       0.00000000    
 -0.127499998       0.00000000    
 -0.126249999       0.00000000    
 -0.125000000       0.00000000    
 -0.123750001       0.00000000    
 -0.122500002       0.00000000    
 -0.121250004       0.00000000    
 -0.119999997       0.00000000    
 -0.118749999       0.00000000    
 -0.117500000       0.00000000    
 -0.116250001       0.00000000    
 -0.115000002       0.00000000    
 -0.113750003       0.00000000    
 -0.112499997       0.00000000    
 -0.111249998       0.00000000    
 -0.109999999       0.00000000    
 -0.108750001       0.00000000    
 -0.107500002       0.00000000    
 -0.106250003       0.00000000    
 -0.104999997       0.00000000    
 -0.103749998       0.00000000    
 -0.102499999       0.00000000    
 -0.101250000       0.00000000    
 -0.100000001       0.00000000    
  -9.87500027E-02   0.00000000    
  -9.74999964E-02   0.00000000    
  -9.62499976E-02   0.00000000    
  -9.49999988E-02   0.00000000    
  -9.37500000E-02   0.00000000    
  -9.25000012E-02   0.00000000    
  -9.12500024E-02   0.00000000    
  -9.00000036E-02   0.00000000    
  -8.87499973E-02   0.00000000    
  -8.74999985E-02   0.00000000    
  -8.62499997E-02   0.00000000    
  -8.50000009E-02   0.00000000    
  -8.37500021E-02   0.00000000    
  -8.25000033E-02   0.00000000    
  -8.12499970E-02   0.00000000    
  -7.99999982E-02   0.00000000    
  -7.87499994E-02   0.00000000    
  -7.75000006E-02   0.00000000    
  -7.62500018E-02   0.00000000    
  -7.50000030E-02   0.00000000    
  -7.37499967E-02   0.00000000    
  -7.24999979E-02   0.00000000    
  -7.12499991E-02   0.00000000    
  -7.00000003E-02   0.00000000    
  -6.87500015E-02   0.00000000    
  -6.75000027E-02   0.00000000    
  -6.62499964E-02   0.00000000    
  -6.49999976E-02   0.00000000    
  -6.37499988E-02   0.00000000    
  -6.25000000E-02   0.00000000    
  -6.12500012E-02   0.00000000    
  -5.99999987E-02   0.00000000    
  -5.87499999E-02   0.00000000    
  -5.75000010E-02   0.00000000    
  -5.62499985E-02   0.00000000    
  -5.49999997E-02   0.00000000    
  -5.37500009E-02   0.00000000    
  -5.24999984E-02   0.00000000    
  -5.12499996E-02   0.00000000    
  -5.00000007E-02   0.00000000    
  -4.87499982E-02   0.00000000    
  -4.74999994E-02   0.00000000    
  -4.62500006E-02   0.00000000    
  -4.50000018E-02   0.00000000    
  -4.37499993E-02   0.00000000    
  -4.25000004E-02   0.00000000    
  -4.12500016E-02   0.00000000    
  -3.99999991E-02   0.00000000    
  -3.87500003E-02   0.00000000    
  -3.75000015E-02   0.00000000    
  -3.62499990E-02   0.00000000    
  -3.50000001E-02   0.00000000    
  -3.37500013E-02   0.00000000    
  -3.24999988E-02   0.00000000    
  -3.12500000E-02   0.00000000    
  -2.99999993E-02   0.00000000    
  -2.87500005E-02   0.00000000    
  -2.74999999E-02   0.00000000    
  -2.62499992E-02   0.00000000    
  -2.50000004E-02   0.00000000    
  -2.37499997E-02   0.00000000    
  -2.25000009E-02   0.00000000    
  -2.12500002E-02   0.00000000    
  -1.99999996E-02   0.00000000    
  -1.87500007E-02   0.00000000    
  -1.75000001E-02   0.00000000    
  -1.62499994E-02   0.00000000    
  -1.49999997E-02   0.00000000    
  -1.37499999E-02   0.00000000    
  -1.25000002E-02   0.00000000    
  -1.12500004E-02   0.00000000    
  -9.99999978E-03   0.00000000    
  -8.75000004E-03   0.00000000    
  -7.49999983E-03   0.00000000    
  -6.25000009E-03   0.00000000    
  -4.99999989E-03   0.00000000    
  -3.74999992E-03   0.00000000    
  -2.49999994E-03   0.00000000    
  -1.24999997E-03   0.00000000    
   0.00000000       0.00000000    
   1.24999997E-03   0.00000000    
   2.49999994E-03   0.00000000    
   3.74999992E-03   0.00000000    
   4.99999989E-03   0.00000000    
   6.25000009E-03   0.00000000    
   7.49999983E-03   0.00000000    
   8.75000004E-03   0.00000000    
   9.99999978E-03   0.00000000    
   1.12500004E-02   0.00000000    
   1.25000002E-02   0.00000000    
   1.37499999E-02   0.00000000    
   1.49999997E-02   0.00000000    
   1.62499994E-02   0.00000000    
   1.75000001E-02   0.00000000    
   1.87500007E-02   0.00000000    
   1.99999996E-02   0.00000000    
   2.12500002E-02   0.00000000    
   2.25000009E-02   0.00000000    
   2.37499997E-02   0.00000000    
   2.50000004E-02   0.00000000    
   2.62499992E-02   0.00000000    
   2.74999999E-02   0.00000000    
   2.87500005E-02   0.00000000    
   2.99999993E-02   0.00000000    
   3.12500000E-02   0.00000000    
   3.24999988E-02   0.00000000    
   3.37500013E-02   0.00000000    
   3.50000001E-02   0.00000000    
   3.62499990E-02   0.00000000    
   3.75000015E-02   0.00000000    
   3.87500003E-02   0.00000000    
   3.99999991E-02   0.00000000    
   4.12500016E-02   0.00000000    
   4.25000004E-02   0.00000000    
   4.37499993E-02   0.00000000    
   4.50000018E-02   0.00000000    
   4.62500006E-02   0.00000000    
   4.74999994E-02   0.00000000    
   4.87499982E-02   0.00000000    
   5.00000007E-02   0.00000000    
   5.12499996E-02   0.00000000    
   5.24999984E-02   0.00000000    
   5.37500009E-02   0.00000000    
   5.49999997E-02   1.40129846E-45
   5.62499985E-02   2.80259693E-45
   5.75000010E-02   4.20389539E-45
   5.87499999E-02   5.60519386E-45
   5.99999987E-02   7.00649232E-45
   6.12500012E-02   5.60519386E-45
   6.25000000E-02   1.40129846E-45
   6.37499988E-02  -7.00649232E-45
   6.49999976E-02  -1.54142831E-44
   6.62499964E-02  -2.52233724E-44
   6.75000027E-02  -3.36311631E-44
   6.87500015E-02  -3.78350585E-44
   7.00000003E-02  -3.64337601E-44
   7.12499991E-02  -2.38220739E-44
   7.24999979E-02   0.00000000    
   7.37499967E-02   3.64337601E-44
   7.50000030E-02   7.98740125E-44
   7.62500018E-02   1.21912966E-43
   7.75000006E-02   1.55544130E-43
   7.87499994E-02   1.65353219E-43
   7.99999982E-02   1.38728548E-43
   8.12499970E-02   6.44597294E-44
   8.25000033E-02  -6.16571324E-44
   8.37500021E-02  -2.34016844E-43
   8.50000009E-02  -4.33001225E-43
   8.62499997E-02  -6.20775220E-43
   8.74999985E-02  -7.46892081E-43
   8.87499973E-02  -7.53898574E-43
   9.00000036E-02  -5.81538863E-43
   9.12500024E-02  -1.84971397E-43
   9.25000012E-02   4.44211613E-43
   9.37500000E-02   1.26397121E-42
   9.49999988E-02   2.16500613E-42
   9.62499976E-02   2.97355534E-42
   9.74999964E-02   3.45420071E-42
   9.87500027E-02   3.34630073E-42
  0.100000001       2.41163466E-42
  0.101250000       4.97460955E-43
  0.102499999      -2.37800349E-42
  0.103749998      -5.97093276E-42
  0.104999997      -9.76004380E-42
  0.106250003      -1.29564056E-41
  0.107500002      -1.45650962E-41
  0.108750001      -1.35393458E-41
  0.109999999      -8.99913874E-42
  0.111249998      -5.01664850E-43
  0.112499997       1.16672110E-41
  0.113750003       2.62715436E-41
  0.115000002       4.10089996E-41
  0.116250001       5.26103495E-41
  0.117500000       5.71996020E-41
  0.118749999       5.09245875E-41
  0.119999997       3.08495857E-41
  0.121250004      -4.02032529E-42
  0.122500002      -5.17597614E-41
  0.123750001      -1.06813975E-40
  0.125000000      -1.59858728E-40
  0.126249999      -1.98442079E-40
  0.127499998      -2.08586079E-40
  0.128749996      -1.77324512E-40
  0.129999995      -9.59749318E-41
  0.131249994       3.63566887E-41
  0.132499993       2.09719729E-40
  0.133750007       4.01565897E-40
  0.135000005       5.77179423E-40
  0.136250004       6.92956104E-40
  0.137500003       7.02828251E-40
  0.138750002       5.67497852E-40
  0.140000001       2.65375101E-40
  0.141249999      -1.96607780E-40
  0.142499998      -7.74779322E-40
  0.143749997      -1.38583233E-39
  0.144999996      -1.91169761E-39
  0.146249995      -2.21367182E-39
  0.147499993      -2.15576737E-39
  0.148750007      -1.63505327E-39
  0.150000006      -6.14504409E-40
  0.151250005       8.48179336E-40
  0.152500004       2.58356137E-39
  0.153750002       4.31281412E-39
  0.155000001       5.67501075E-39
  0.156250000       6.28098265E-39
  0.157499999       5.78977990E-39
  0.158749998       3.99726973E-39
  0.159999996       9.20337799E-40
  0.161249995      -3.14402330E-39
  0.162499994      -7.60599863E-39
  0.163749993      -1.16335714E-38
  0.165000007      -1.42736065E-38
  0.166250005      -1.46359081E-38
  0.167500004      -1.21151613E-38
  0.168750003      -6.60857541E-39
  0.170000002       1.32525840E-39
  0.171250001       1.04235712E-38
  0.172499999       1.88393592E-38
  0.173749998       2.44448446E-38
  0.174999997       2.52993732E-38
  0.176249996       2.02139854E-38
  0.177499995       9.29677033E-39
  0.178749993      -5.67193210E-39
  0.180000007      -2.11940227E-38
  0.181250006      -3.24675894E-38
  0.182500005      -3.43158236E-38
  0.183750004      -2.25703851E-38
  0.185000002       4.29456361E-39
  0.186250001       4.36255209E-38
  0.187500000       8.76061700E-38
  0.188749999       1.23314904E-37
  0.189999998       1.34228766E-37
  0.191249996       1.03361299E-37
  0.192499995       1.78712904E-38
  0.193749994      -1.25465123E-37
  0.194999993      -3.14990842E-37
  0.196250007      -5.20559914E-37
  0.197500005      -6.93192979E-37
  0.198750004      -7.69428727E-37
  0.200000003      -6.81209075E-37
  0.201250002      -3.71105424E-37
  0.202500001       1.88681341E-37
  0.203749999       9.76644135E-37
  0.204999998       1.90608160E-36
  0.206249997       2.81829219E-36
  0.207499996       3.49004409E-36
  0.208749995       3.65915952E-36
  0.209999993       3.06930945E-36
  0.211250007       1.53111511E-36
  0.212500006      -1.00815393E-36
  0.213750005      -4.39878861E-36
  0.215000004      -8.24295683E-36
  0.216250002      -1.18867267E-35
  0.217500001      -1.44653821E-35
  0.218750000      -1.50114374E-35
  0.219999999      -1.26243946E-35
  0.221249998      -6.68756988E-36
  0.222499996       2.89795446E-36
  0.223749995       1.55060820E-35
  0.224999994       2.96582390E-35
  0.226249993       4.30297456E-35
  0.227500007       5.26339190E-35
  0.228750005       5.52051636E-35
  0.230000004       4.77678889E-35
  0.231250003       2.83354205E-35
  0.232500002      -3.36151996E-36
  0.233750001      -4.52550000E-35
  0.234999999      -9.25882947E-35
  0.236249998      -1.37987390E-34
  0.237499997      -1.72072950E-34
  0.238749996      -1.84657638E-34
  0.239999995      -1.66470824E-34
  0.241249993      -1.11230832E-34
  0.242500007      -1.77637099E-35
  0.243750006       1.08229751E-34
  0.245000005       2.53202998E-34
  0.246250004       3.96005175E-34
  0.247500002       5.09635484E-34
  0.248750001       5.64602931E-34
  0.250000000       5.33703685E-34
  0.251249999       3.97705371E-34
  0.252499998       1.51120302E-34
  0.253749996      -1.92987864E-34
  0.254999995      -6.00315873E-34
  0.256249994      -1.01580721E-33
  0.257499993      -1.36805208E-33
  0.258749992      -1.57780490E-33
  0.259999990      -1.57011515E-33
  0.261249989      -1.28878051E-33
  0.262499988      -7.11088997E-34
  0.263749987       1.39727466E-34
  0.264999986       1.18711375E-33
  0.266250014       2.30141755E-33
  0.267500013       3.30948459E-33
  0.268750012       4.01412550E-33
  0.270000011       4.22232171E-33
  0.271250010       3.77924226E-33
  0.272500008       2.60347240E-33
  0.273750007       7.17635720E-34
  0.275000006      -1.73186924E-33
  0.276250005      -4.47175059E-33
  0.277500004      -7.11941019E-33
  0.278750002      -9.22263113E-33
  0.280000001      -1.03192777E-32
  0.281250000      -1.00111234E-32
  0.282499999      -8.04237456E-33
  0.283749998      -4.37081273E-33
  0.284999996       7.81614755E-34
  0.286249995       6.91104133E-33
  0.287499994       1.32559543E-32
  0.288749993       1.88675131E-32
  0.289999992       2.27231889E-32
  0.291249990       2.38735291E-32
  0.292499989       2.16047207E-32
  0.293749988       1.55941228E-32
  0.294999987       6.03307341E-33
  0.296249986      -6.30788268E-33
  0.297500014      -2.00914143E-32
  0.298750013      -3.35148280E-32
  0.300000012      -4.45000196E-32
  0.301250011      -5.09579211E-32
  0.302500010      -5.10998620E-32
  0.303750008      -4.37569279E-32
  0.305000007      -2.86609738E-32
  0.306250006      -6.63953739E-33
  0.307500005       2.03180084E-32
  0.308750004       4.91535343E-32
  0.310000002       7.60046494E-32
  0.311250001       9.66300731E-32
  0.312500000       1.06960852E-31
  0.313749999       1.03718839E-31
  0.314999998       8.50252931E-32
  0.316249996       5.09111952E-32
  0.317499995       3.64040829E-33
  0.318749994      -5.22320688E-32
  0.319999993      -1.10120628E-31
  0.321249992      -1.62007066E-31
  0.322499990      -1.99350911E-31
  0.323749989      -2.14238547E-31
  0.324999988      -2.00649856E-31
  0.326249987      -1.55682037E-31
  0.327499986      -8.05438796E-32
  0.328750014       1.88689854E-32
  0.330000013       1.31986046E-31
  0.331250012       2.44276918E-31
  0.332500011       3.38705273E-31
  0.333750010       3.97853351E-31
  0.335000008       4.06531415E-31
  0.336250007       3.54570215E-31
  0.337500006       2.39397724E-31
  0.338750005       6.79452015E-32
  0.340000004      -1.42569491E-31
  0.341250002      -3.65355258E-31
  0.342500001      -5.66474301E-31
  0.343750000      -7.08964482E-31
  0.344999999      -7.58354147E-31
  0.346249998      -6.88958415E-31
  0.347499996      -4.90070272E-31
  0.348749995      -1.70966390E-31
  0.349999994       2.36403481E-31
  0.351249993       6.78042445E-31
  0.352499992       1.08250645E-30
  0.353749990       1.36959715E-30
  0.354999989       1.46257462E-30
  0.356249988       1.30255974E-30
  0.357499987       8.63091963E-31
  0.358749986       1.62295392E-31
  0.360000014      -7.30068273E-31
  0.361250013      -1.69311849E-30
  0.362500012      -2.56463414E-30
  0.363750011      -3.16052251E-30
  0.365000010      -3.30278591E-30
  0.366250008      -2.85299758E-30
  0.367500007      -1.74661345E-30
  0.368750006      -2.22219111E-32
  0.370000005       2.16064438E-30
  0.371250004       4.52094149E-30
  0.372500002       6.67688691E-30
  0.373750001       8.18933775E-30
  0.375000000       8.62534120E-30
  0.376249999       7.63536055E-30
  0.377499998       5.03382980E-30
  0.378749996       8.69822938E-31
  0.379999995      -4.52656243E-30
  0.381249994      -1.05354597E-29
  0.382499993      -1.62858908E-29
  0.383749992      -2.07455847E-29
  0.384999990      -2.28577822E-29
  0.386249989      -2.17120615E-29
  0.387499988      -1.67277653E-29
  0.388749987      -7.82211406E-30
  0.389999986       4.46798143E-30
  0.391250014       1.89399441E-29
  0.392500013       3.37782323E-29
  0.393750012       4.67168433E-29
  0.395000011       5.53069302E-29
  0.396250010       5.72669431E-29
  0.397500008       5.08751307E-29
  0.398750007       3.53500529E-29
  0.400000006       1.11567730E-29
  0.401250005      -1.98229830E-29
  0.402500004      -5.43078240E-29
  0.403750002      -8.78516134E-29
  0.405000001      -1.15298300E-28
  0.406250000      -1.31425158E-28
  0.407499999      -1.31708571E-28
  0.408749998      -1.13117449E-28
  0.409999996      -7.48196459E-29
  0.411249995      -1.86824353E-29
  0.412499994       5.05397661E-29
  0.413749993       1.25406700E-28
  0.414999992       1.96412776E-28
  0.416249990       2.53000196E-28
  0.417499989       2.84877274E-28
  0.418749988       2.83498404E-28
  0.419999987       2.43519903E-28
  0.421249986       1.64023966E-28
  0.422500014       4.93092233E-29
  0.423750013      -9.09197041E-29
  0.425000012      -2.42069148E-28
  0.426250011      -3.85901737E-28
  0.427500010      -5.02436363E-28
  0.428750008      -5.72332887E-28
  0.430000007      -5.79506783E-28
  0.431250006      -5.13661742E-28
  0.432500005      -3.72401738E-28
  0.433750004      -1.62602618E-28
  0.435000002       9.92195172E-29
  0.436250001       3.87706815E-28
  0.437500000       6.70663022E-28
  0.438749999       9.12155088E-28
  0.439999998       1.07646176E-27
  0.441249996       1.13249033E-27
  0.442499995       1.05818333E-27
  0.443749994       8.44387969E-28
  0.444999993       4.97662224E-28
  0.446249992       4.15564675E-29
  0.447499990      -4.83971125E-28
  0.448749989      -1.02517135E-27
  0.449999988      -1.51910767E-27
  0.451249987      -1.89996687E-27
  0.452499986      -2.10656118E-27
  0.453750014      -2.09030152E-27
  0.455000013      -1.82275903E-27
  0.456250012      -1.30185642E-27
  0.457500011      -5.55749185E-28
  0.458750010       3.56410188E-28
  0.460000008       1.34737972E-27
  0.461250007       2.30859701E-27
  0.462500006       3.12055193E-27
  0.463750005       3.66600919E-27
  0.465000004       3.84484026E-27
  0.466250002       3.58881407E-27
  0.467500001       2.87443908E-27
  0.468750000       1.73188595E-27
  0.469999999       2.48238840E-28
  0.471249998      -1.43619957E-27
  0.472499996      -3.13907033E-27
  0.473749995      -4.65416456E-27
  0.474999994      -5.77519830E-27
  0.476249993      -6.32267624E-27
  0.477499992      -6.17054665E-27
  0.478749990      -5.26890136E-27
  0.479999989      -3.65899534E-27
  0.481249988      -1.47744971E-27
  0.482499987       1.05233727E-27
  0.483749986       3.64192852E-27
  0.485000014       5.97116437E-27
  0.486250013       7.72952416E-27
  0.487500012       8.66031608E-27
  0.488750011       8.60136106E-27
  0.490000010       7.51558184E-27
  0.491250008       5.50566787E-27
  0.492500007       2.80878239E-27
  0.493750006      -2.30008348E-28
  0.495000005      -3.20361806E-27
  0.496250004      -5.70276254E-27
  0.497500002      -7.38136533E-27
  0.498750001      -8.01721957E-27
  0.500000000      -7.55707023E-27
  0.501250029      -6.13657517E-27
  0.502499998      -4.06869649E-27
  0.503750026      -1.79872208E-27
  0.504999995       1.70246128E-28
  0.506250024       1.37173176E-27
  0.507499993       1.47570935E-27
  0.508750021       3.76156002E-28
  0.509999990      -1.75179371E-27
  0.511250019      -4.44055774E-27
  0.512499988      -6.97434006E-27
  0.513750017      -8.49009854E-27
  0.514999986      -8.12647912E-27
  0.516250014      -5.20185088E-27
  0.517499983       6.05827264E-28
  0.518750012       9.10962553E-27
  0.519999981       1.95273211E-26
  0.521250010       3.04854095E-26
  0.522499979       4.01298473E-26
  0.523750007       4.63444812E-26
  0.524999976       4.70599441E-26
  0.526250005       4.06176407E-26
  0.527499974       2.61380803E-26
  0.528750002       3.83348806E-27
  0.529999971      -2.47963203E-26
  0.531250000      -5.69371144E-26
  0.532500029      -8.86360908E-26
  0.533749998      -1.15187349E-25
  0.535000026      -1.31701758E-25
  0.536249995      -1.33803518E-25
  0.537500024      -1.18367248E-25
  0.538749993      -8.41903604E-26
  0.540000021      -3.24899975E-26
  0.541249990       3.28752544E-26
  0.542500019       1.05531322E-25
  0.543749988       1.77092925E-25
  0.545000017       2.38024677E-25
  0.546249986       2.78783000E-25
  0.547500014       2.91111811E-25
  0.548749983       2.69328157E-25
  0.550000012       2.11415857E-25
  0.551249981       1.19752204E-25
  0.552500010       1.32593411E-27
  0.553749979      -1.32638678E-25
  0.555000007      -2.67661984E-25
  0.556249976      -3.87520499E-25
  0.557500005      -4.76136425E-25
  0.558749974      -5.19626179E-25
  0.560000002      -5.08247896E-25
  0.561249971      -4.37981836E-25
  0.562500000      -3.11505813E-25
  0.563750029      -1.38393603E-25
  0.564999998       6.55430938E-26
  0.566250026       2.79738582E-25
  0.567499995       4.81039639E-25
  0.568750024       6.46312901E-25
  0.569999993       7.55180242E-25
  0.571250021       7.92539018E-25
  0.572499990       7.50537352E-25
  0.573750019       6.29737307E-25
  0.574999988       4.39294994E-25
  0.576250017       1.96115172E-25
  0.577499986      -7.69298326E-26
  0.578750014      -3.53501218E-25
  0.579999983      -6.06701730E-25
  0.581250012      -8.12022601E-25
  0.582499981      -9.49957248E-25
  0.583750010      -1.00795558E-24
  0.584999979      -9.81488215E-25
  0.586250007      -8.74113103E-25
  0.587499976      -6.96580351E-25
  0.588750005      -4.65142169E-25
  0.589999974      -1.99346001E-25
  0.591250002       8.03467404E-26
  0.592499971       3.54759279E-25
  0.593750000       6.07699048E-25
  0.595000029       8.26931333E-25
  0.596249998       1.00432603E-24
  0.597500026       1.13521817E-24
  0.598749995       1.21716090E-24
  0.600000024       1.24836371E-24
  0.601249993       1.22617522E-24
  0.602500021       1.14598465E-24
  0.603749990       1.00087043E-24
  0.605000019       7.82218795E-25
  0.606249988       4.81388562E-25
  0.607500017       9.23225734E-26
  0.608749986      -3.85176670E-25
  0.610000014      -9.41950507E-25
  0.611249983      -1.55633352E-24
  0.612500012      -2.19197545E-24
  0.613749981      -2.79724772E-24
  0.615000010      -3.30674892E-24
  0.616249979      -3.64523947E-24
  0.617500007      -3.73408335E-24
  0.618749976      -3.49995496E-24
  0.620000005      -2.88522583E-24
  0.621249974      -1.85909804E-24
  0.622500002      -4.28250547E-25
  0.623749971       1.35446067E-24
  0.625000000       3.38478915E-24
  0.626250029       5.50683643E-24
  0.627499998       7.51892122E-24
  0.628750026       9.18627735E-24
  0.629999995       1.02605726E-23
  0.631250024       1.05054098E-23
  0.632499993       9.72600888E-24
  0.633750021       7.80038522E-24
  0.634999990       4.70851708E-24
  0.636250019       5.55524576E-25
  0.637499988      -4.41524620E-24
  0.638750017      -9.82290388E-24
  0.639999986      -1.51661664E-23
  0.641250014      -1.98581565E-23
  0.642499983      -2.32780042E-23
  0.643750012      -2.48361307E-23
  0.644999981      -2.40477400E-23
  0.646250010      -2.06070095E-23
  0.647499979      -1.44529794E-23
  0.648750007      -5.81758096E-24
  0.649999976       4.75311257E-24
  0.651250005       1.64115143E-23
  0.652499974       2.80589746E-23
  0.653750002       3.84338681E-23
  0.654999971       4.62323514E-23
  0.656250000       5.02519006E-23
  0.657500029       4.95434751E-23
  0.658749998       4.35549038E-23
  0.660000026       3.22468573E-23
  0.661249995       1.61636116E-23
  0.662500024      -3.55584733E-24
  0.663749993      -2.52352028E-23
  0.665000021      -4.67880440E-23
  0.666249990      -6.59077067E-23
  0.667500019      -8.03038944E-23
  0.668749988      -8.79626294E-23
  0.670000017      -8.74006260E-23
  0.671249986      -7.78830318E-23
  0.672500014      -5.95748513E-23
  0.673749983      -3.36018300E-23
  0.675000012      -2.00574097E-24
  0.676249981       3.24093469E-23
  0.677500010       6.63298925E-23
  0.678749979       9.62619005E-23
  0.680000007       1.18902126E-22
  0.681249976       1.31509954E-22
  0.682500005       1.32235807E-22
  0.683749974       1.20364725E-22
  0.685000002       9.64422026E-23
  0.686249971       6.22624688E-23
  0.687500000       2.07156215E-23
  0.688750029      -2.44922189E-23
  0.689999998      -6.92153437E-23
  0.691250026      -1.09297978E-22
  0.692499995      -1.41005731E-22
  0.693750024      -1.61407164E-22
  0.694999993      -1.68659282E-22
  0.696250021      -1.62163662E-22
  0.697499990      -1.42577193E-22
  0.698750019      -1.11681045E-22
  0.699999988      -7.21312197E-23
  0.701250017      -2.71298669E-23
  0.702499986       1.99330194E-23
  0.703750014       6.58153153E-23
  0.704999983       1.07689245E-22
  0.706250012       1.43305255E-22
  0.707499981       1.71038751E-22
  0.708750010       1.89826869E-22
  0.709999979       1.99023434E-22
  0.711250007       1.98216688E-22
  0.712499976       1.87063066E-22
  0.713750005       1.65189745E-22
  0.714999974       1.32206916E-22
  0.716250002       8.78505039E-23
  0.717499971       3.22488358E-23
  0.718750000      -3.37229864E-23
  0.720000029      -1.08063897E-22
  0.721249998      -1.87325107E-22
  0.722500026      -2.66435007E-22
  0.723749995      -3.38752246E-22
  0.725000024      -3.96404170E-22
  0.726249993      -4.30931009E-22
  0.727500021      -4.34207571E-22
  0.728749990      -3.99563526E-22
  0.730000019      -3.22976063E-22
  0.731249988      -2.04173598E-22
  0.732500017      -4.74728793E-23
  0.733749986       1.37819503E-22
  0.735000014       3.37576578E-22
  0.736249983       5.33667154E-22
  0.737500012       7.05417142E-22
  0.738749981       8.31624588E-22
  0.740000010       8.92950660E-22
  0.741249979       8.74432699E-22
  0.742500007       7.67817832E-22
  0.743749976       5.73397723E-22
  0.745000005       3.01053883E-22
  0.746249974      -2.97120579E-23
  0.747500002      -3.90885072E-22
  0.748749971      -7.48171334E-22
  0.750000000      -1.06420926E-21
  0.751250029      -1.30246979E-21
  0.752499998      -1.43144211E-21
  0.753750026      -1.42863200E-21
  0.754999995      -1.28387438E-21
  0.756250024      -1.00150761E-21
  0.757499993      -6.01050567E-22
  0.758750021      -1.16182222E-22
  0.759999990       4.07991943E-22
  0.761250019       9.19194358E-22
  0.762499988       1.36336066E-21
  0.763750017       1.69060036E-21
  0.764999986       1.86107055E-21
  0.766250014       1.85006194E-21
  0.767499983       1.65164371E-21
  0.768750012       1.28034442E-21
  0.769999981       7.70542116E-22
  0.771250010       1.73497713E-22
  0.772499979      -4.47763054E-22
  0.773750007      -1.02523766E-21
  0.774999976      -1.49369411E-21
  0.776250005      -1.79850532E-21
  0.777499974      -1.90263274E-21
  0.778750002      -1.79186445E-21
  0.779999971      -1.47756722E-21
  0.781250000      -9.96462135E-22
  0.782500029      -4.07266696E-22
  0.783749998       2.15585916E-22
  0.785000026       7.90568126E-22
  0.786249995       1.23911141E-21
  0.787500024       1.49594271E-21
  0.788749993       1.51843794E-21
  0.790000021       1.29375147E-21
  0.791249990       8.42659250E-22
  0.792500019       2.19375755E-22
  0.793749988      -4.92959053E-22
  0.795000017      -1.19091854E-21
  0.796249986      -1.76282145E-21
  0.797500014      -2.10294616E-21
  0.798749983      -2.12633623E-21
  0.800000012      -1.78239671E-21
  0.801249981      -1.06545972E-21
  0.802500010      -2.07046626E-23
  0.803749979       1.25576357E-21
  0.805000007       2.62327346E-21
  0.806249976       3.90924952E-21
  0.807500005       4.92726449E-21
  0.808749974       5.49882004E-21
  0.810000002       5.47659078E-21
  0.811249971       4.76645541E-21
  0.812500000       3.34553986E-21
  0.813750029       1.27369578E-21
  0.814999998      -1.30361988E-21
  0.816250026      -4.16227389E-21
  0.817499995      -7.01635275E-21
  0.818750024      -9.54402606E-21
  0.819999993      -1.14202333E-20
  0.821250021      -1.23530620E-20
  0.822499990      -1.21199699E-20
  0.823750019      -1.05997186E-20
  0.824999988      -7.79599956E-21
  0.826250017      -3.84939726E-21
  0.827499986       9.64618408E-22
  0.828750014       6.25255404E-21
  0.829999983       1.15338785E-20
  0.831250012       1.62837580E-20
  0.832499981       1.99836949E-20
  0.833750010       2.21751096E-20
  0.834999979       2.25102825E-20
  0.836250007       2.07950653E-20
  0.837499976       1.70183945E-20
  0.838750005       1.13648695E-20
  0.839999974       4.20831772E-21
  0.841250002      -3.91371581E-21
  0.842499971      -1.23426059E-20
  0.843750000      -2.03545674E-20
  0.845000029      -2.72245431E-20
  0.846249998      -3.22918516E-20
  0.847500026      -3.50211663E-20
  0.848749995      -3.50529126E-20
  0.850000024      -3.22383433E-20
  0.851249993      -2.66561618E-20
  0.852500021      -1.86096057E-20
  0.853749990      -8.60482952E-21
  0.855000019       2.68671151E-21
  0.856249988       1.44778644E-20
  0.857500017       2.59224898E-20
  0.858749986       3.61743013E-20
  0.860000014       4.44432511E-20
  0.861249983       5.00458811E-20
  0.862500012       5.24472381E-20
  0.863749981       5.12932695E-20
  0.865000010       4.64337094E-20
  0.866249979       3.79362025E-20
  0.867500007       2.60925820E-20
  0.868749976       1.14179852E-20
  0.870000005      -5.35733460E-21