 -0.200000003       0.00000000    
 -0.198750004       0.00000000    
 -0.197500005       0.00000000    
 -0.196250007       0.00000000    
 -0.194999993       0.00000000    
 -0.193749994       0.00000000    
 -0.192499995       0.00000000    
 -0.191249996       0.00000000    
 -0.189999998       0.00000000    
 -0.188749999       0.00000000    
 -0.187500000       0.00000000    
 -0.186250001       0.00000000    
 -0.185000002       0.00000000    
 -0.183750004       0.00000000    
 -0.182500005       0.00000000    
 -0.181250006       0.00000000    
 -0.180000007       0.00000000    
 -0.178749993       0.00000000    
 -0.177499995       0.00000000    
 -0.176249996       0.00000000    
 -0.174999997       0.00000000    
 -0.173749998       0.00000000    
 -0.172499999       0.00000000    
 -0.171250001       0.00000000    
 -0.170000002       0.00000000    
 -0.168750003       0.00000000    
 -0.167500004       0.00000000    
 -0.166250005       0.00000000    
 -0.165000007       0.00000000    
 -0.163749993       0.00000000    
 -0.162499994       0.00000000    
 -0.161249995       0.00000000    
 -0.159999996       0.00000000    
 -0.158749998       0.00000000    
 -0.157499999       0.00000000    
 -0.156250000       0.00000000    
 -0.155000001       0.00000000    
 -0.153750002       0.00000000    
 -0.152500004       0.00000000    
 -0.151250005       0.00000000    
 -0.150000006       0.00000000    
 -0.148750007       0.00000000    
 -0.147499993       0.00000000    
 -0.146249995       0.00000000    
 -0.144999996       0.00000000    
 -0.143749997       0.00000000    
 -0.142499998       0.00000000    
 -0.141249999       0.00000000    
 -0.140000001       0.00000000    
 -0.138750002       0.00000000    
 -0.137500003       0.00000000    
 -0.136250004       0.00000000    
 -0.135000005       0.00000000    
 -0.133750007       0.00000000    
 -0.132499993       0.00000000    
 -0.131249994       0.00000000    
 -0.129999995       0.00000000    
 -0.128749996       0.00000000    
 -0.127499998       0.00000000    
 -0.126249999       0.00000000    
 -0.125000000       0.00000000    
 -0.123750001       0.00000000    
 -0.122500002       0.00000000    
 -0.121250004       0.00000000    
 -0.119999997       0.00000000    
 -0.118749999       0.00000000    
 -0.117500000       0.00000000    
 -0.116250001       0.00000000    
 -0.115000002       0.00000000    
 -0.113750003       0.00000000    
 -0.112499997       0.00000000    
 -0.111249998       0.00000000    
 -0.109999999       0.00000000    
 -0.108750001       0.00000000    
 -0.107500002       0.00000000    
 -0.106250003       0.00000000    
 -0.104999997       0.00000000    
 -0.103749998       0.00000000    
 -0.102499999       0.00000000    
 -0.101250000       0.00000000    
 -0.100000001       0.00000000    
  -9.87500027E-02   0.00000000    
  -9.74999964E-02   0.00000000    
  -9.62499976E-02   0.00000000    
  -9.49999988E-02   0.00000000    
  -9.37500000E-02   0.00000000    
  -9.25000012E-02   0.00000000    
  -9.12500024E-02   0.00000000    
  -9.00000036E-02   0.00000000    
  -8.87499973E-02   0.00000000    
  -8.74999985E-02   0.00000000    
  -8.62499997E-02   0.00000000    
  -8.50000009E-02   0.00000000    
  -8.37500021E-02   0.00000000    
  -8.25000033E-02   0.00000000    
  -8.12499970E-02   0.00000000    
  -7.99999982E-02   0.00000000    
  -7.87499994E-02   0.00000000    
  -7.75000006E-02   0.00000000    
  -7.62500018E-02   0.00000000    
  -7.50000030E-02   0.00000000    
  -7.37499967E-02   0.00000000    
  -7.24999979E-02   0.00000000    
  -7.12499991E-02   0.00000000    
  -7.00000003E-02   0.00000000    
  -6.87500015E-02   0.00000000    
  -6.75000027E-02   0.00000000    
  -6.62499964E-02   0.00000000    
  -6.49999976E-02   0.00000000    
  -6.37499988E-02   0.00000000    
  -6.25000000E-02   0.00000000    
  -6.12500012E-02   0.00000000    
  -5.99999987E-02   0.00000000    
  -5.87499999E-02   0.00000000    
  -5.75000010E-02   0.00000000    
  -5.62499985E-02   0.00000000    
  -5.49999997E-02   0.00000000    
  -5.37500009E-02   0.00000000    
  -5.24999984E-02   0.00000000    
  -5.12499996E-02   0.00000000    
  -5.00000007E-02   0.00000000    
  -4.87499982E-02   0.00000000    
  -4.74999994E-02   0.00000000    
  -4.62500006E-02   0.00000000    
  -4.50000018E-02   0.00000000    
  -4.37499993E-02   0.00000000    
  -4.25000004E-02   0.00000000    
  -4.12500016E-02   0.00000000    
  -3.99999991E-02   0.00000000    
  -3.87500003E-02   0.00000000    
  -3.75000015E-02   0.00000000    
  -3.62499990E-02   0.00000000    
  -3.50000001E-02   0.00000000    
  -3.37500013E-02   0.00000000    
  -3.24999988E-02   0.00000000    
  -3.12500000E-02   0.00000000    
  -2.99999993E-02   0.00000000    
  -2.87500005E-02   0.00000000    
  -2.74999999E-02   0.00000000    
  -2.62499992E-02   0.00000000    
  -2.50000004E-02   0.00000000    
  -2.37499997E-02   0.00000000    
  -2.25000009E-02   0.00000000    
  -2.12500002E-02   0.00000000    
  -1.99999996E-02   0.00000000    
  -1.87500007E-02   0.00000000    
  -1.75000001E-02   0.00000000    
  -1.62499994E-02   0.00000000    
  -1.49999997E-02   0.00000000    
  -1.37499999E-02   0.00000000    
  -1.25000002E-02   0.00000000    
  -1.12500004E-02   0.00000000    
  -9.99999978E-03   0.00000000    
  -8.75000004E-03   0.00000000    
  -7.49999983E-03   0.00000000    
  -6.25000009E-03   0.00000000    
  -4.99999989E-03   0.00000000    
  -3.74999992E-03   0.00000000    
  -2.49999994E-03   0.00000000    
  -1.24999997E-03   0.00000000    
   0.00000000       0.00000000    
   1.24999997E-03   0.00000000    
   2.49999994E-03   0.00000000    
   3.74999992E-03   0.00000000    
   4.99999989E-03   0.00000000    
   6.25000009E-03   0.00000000    
   7.49999983E-03   0.00000000    
   8.75000004E-03   0.00000000    
   9.99999978E-03   0.00000000    
   1.12500004E-02   0.00000000    
   1.25000002E-02   0.00000000    
   1.37499999E-02   0.00000000    
   1.49999997E-02   0.00000000    
   1.62499994E-02   0.00000000    
   1.75000001E-02   0.00000000    
   1.87500007E-02   0.00000000    
   1.99999996E-02   0.00000000    
   2.12500002E-02   0.00000000    
   2.25000009E-02   0.00000000    
   2.37499997E-02   0.00000000    
   2.50000004E-02   0.00000000    
   2.62499992E-02   0.00000000    
   2.74999999E-02   0.00000000    
   2.87500005E-02   0.00000000    
   2.99999993E-02   0.00000000    
   3.12500000E-02   0.00000000    
   3.24999988E-02   0.00000000    
   3.37500013E-02   0.00000000    
   3.50000001E-02   0.00000000    
   3.62499990E-02   0.00000000    
   3.75000015E-02   0.00000000    
   3.87500003E-02   0.00000000    
   3.99999991E-02   0.00000000    
   4.12500016E-02   2.24207754E-41
   4.25000004E-02   3.36311631E-41
   4.37499993E-02   3.36311631E-41
   4.50000018E-02   3.36311631E-41
   4.62500006E-02   3.36311631E-41
   4.74999994E-02  -2.24207754E-41
   4.87499982E-02  -6.72623263E-41
   5.00000007E-02  -1.34524653E-40
   5.12499996E-02  -2.01786979E-40
   5.24999984E-02  -2.69049305E-40
   5.37500009E-02  -2.57838917E-40
   5.49999997E-02  -2.35418142E-40
   5.62499985E-02  -7.28675201E-41
   5.75000010E-02   4.72849950E-40
   5.87499999E-02   5.96164215E-40
   5.99999987E-02   9.91973578E-40
   6.12500012E-02   1.15395387E-39
   6.25000000E-02   1.72612225E-39
   6.37499988E-02   1.13944483E-39
   6.49999976E-02  -3.96815495E-40
   6.62499964E-02  -1.82341020E-39
   6.75000027E-02  -3.76712748E-39
   6.87500015E-02  -4.82321046E-39
   7.00000003E-02  -6.90016600E-39
   7.12499991E-02  -7.76739459E-39
   7.24999979E-02  -5.70036304E-39
   7.37499967E-02  -1.92546957E-39
   7.50000030E-02   4.39433886E-39
   7.62500018E-02   1.25389924E-38
   7.75000006E-02   2.21894407E-38
   7.87499994E-02   3.11766095E-38
   7.99999982E-02   3.52023158E-38
   8.12499970E-02   3.48323898E-38
   8.25000033E-02   2.34969390E-38
   8.37500021E-02   2.09582823E-39
   8.50000009E-02  -2.99212563E-38
   8.62499997E-02  -7.04257856E-38
   8.74999985E-02  -1.13996404E-37
   8.87499973E-02  -1.49353944E-37
   9.00000036E-02  -1.64796937E-37
   9.12500024E-02  -1.49874386E-37
   9.25000012E-02  -8.93486902E-38
   9.37500000E-02   1.94534993E-38
   9.49999988E-02   1.75103039E-37
   9.62499976E-02   3.59135129E-37
   9.74999964E-02   5.41046718E-37
   9.87500027E-02   6.76417486E-37
  0.100000001       7.11445194E-37
  0.101250000       5.94113106E-37
  0.102499999       2.83284099E-37
  0.103749998      -2.29978638E-37
  0.104999997      -9.15372102E-37
  0.106250003      -1.68341011E-36
  0.107500002      -2.38934903E-36
  0.108750001      -2.84104067E-36
  0.109999999      -2.82615381E-36
  0.111249998      -2.15048132E-36
  0.112499997      -6.95027851E-37
  0.113750003       1.52935499E-36
  0.115000002       4.32358251E-36
  0.116250001       7.27991314E-36
  0.117500000       9.78559300E-36
  0.118749999       1.10839195E-35
  0.119999997       1.03927576E-35
  0.121250004       7.07425042E-36
  0.122500002       8.40429494E-37
  0.123750001      -8.04641811E-36
  0.125000000      -1.86139444E-35
  0.126249999      -2.91382866E-35
  0.127499998      -3.72400858E-35
  0.128749996      -4.01782936E-35
  0.129999995      -3.53355037E-35
  0.131249994      -2.08641336E-35
  0.132499993       3.62191197E-36
  0.133750007       3.64143354E-35
  0.135000005       7.33231132E-35
  0.136250004       1.07722945E-34
  0.137500003       1.31150375E-34
  0.138750002       1.34544707E-34
  0.140000001       1.10054029E-34
  0.141249999       5.32122243E-35
  0.142499998      -3.48874584E-35
  0.143749997      -1.45913230E-34
  0.144999996      -2.63661156E-34
  0.146249995      -3.64976968E-34
  0.147499993      -4.22531858E-34
  0.148750007      -4.09494386E-34
  0.150000006      -3.05613746E-34
  0.151250005      -1.03857360E-34
  0.152500004       1.83758305E-34
  0.153750002       5.22719103E-34
  0.155000001       8.56516979E-34
  0.156250000       1.11226984E-33
  0.157499999       1.21181437E-33
  0.158749998       1.08747535E-33
  0.159999996       7.00369177E-34
  0.161249995       5.78181590E-35
  0.162499994      -7.74481341E-34
  0.163749993      -1.66997101E-33
  0.165000007      -2.45208930E-33
  0.166250005      -2.92004699E-33
  0.167500004      -2.88810366E-33
  0.168750003      -2.23313419E-33
  0.170000002      -9.41689994E-34
  0.171250001       8.55061203E-34
  0.172499999       2.87084998E-33
  0.173749998       4.68867301E-33
  0.174999997       5.82513948E-33
  0.176249996       5.83166825E-33
  0.177499995       4.41907081E-33
  0.178749993       1.58164914E-33
  0.180000007      -2.31115965E-33
  0.181250006      -6.49030692E-33
  0.182500005      -9.85946695E-33
  0.183750004      -1.11795427E-32
  0.185000002      -9.35720907E-33
  0.186250001      -3.79983802E-33
  0.187500000       5.23188475E-33
  0.188749999       1.63668545E-32
  0.189999998       2.70652755E-32
  0.191249996       3.38501054E-32
  0.192499995       3.28792647E-32
  0.193749994       2.08421761E-32
  0.194999993      -3.92449589E-33
  0.196250007      -4.03017268E-32
  0.197500005      -8.35151591E-32
  0.198750004      -1.24847057E-31
  0.200000003      -1.52234194E-31
  0.201250002      -1.51949255E-31
  0.202500001      -1.11373082E-31
  0.203749999      -2.26040011E-32
  0.204999998       1.13648816E-31
  0.206249997       2.84713666E-31
  0.207499996       4.64154524E-31
  0.208749995       6.12533790E-31
  0.209999993       6.81529854E-31
  0.211250007       6.21710028E-31
  0.212500006       3.93522313E-31
  0.213750005      -1.98196723E-32
  0.215000004      -5.99799754E-31
  0.216250002      -1.28336035E-30
  0.217500001      -1.96022278E-30
  0.218750000      -2.47970251E-30
  0.219999999      -2.66887115E-30
  0.221249998      -2.36206017E-30
  0.222499996      -1.43922187E-30
  0.223749995       1.32112082E-31
  0.224999994       2.25906937E-30
  0.226249993       4.69933903E-30
  0.227500007       7.06043736E-30
  0.228750005       8.83021275E-30
  0.230000004       9.44241021E-30
  0.231250003       8.37502222E-30
  0.232500002       5.27156028E-30
  0.233750001       6.75290589E-32
  0.234999999      -6.90216278E-30
  0.236249998      -1.48426741E-29
  0.237499997      -2.25123080E-29
  0.238749996      -2.83289911E-29
  0.239999995      -3.05769816E-29
  0.241249993      -2.77025191E-29
  0.242500007      -1.86660227E-29
  0.243750006      -3.29783718E-30
  0.245000005       1.74113215E-29
  0.246250004       4.11606438E-29
  0.247500002       6.43991131E-29
  0.248750001       8.26421414E-29
  0.250000000       9.10547900E-29
  0.251249999       8.52632358E-29
  0.252499998       6.23008906E-29
  0.253749996       2.15463112E-29
  0.254999995      -3.45267991E-29
  0.256249994      -9.99773767E-29
  0.257499993      -1.65569633E-28
  0.258749992      -2.19597469E-28
  0.259999990      -2.49372611E-28
  0.261249989      -2.43267052E-28
  0.262499988      -1.93071937E-28
  0.263749987      -9.63188019E-29
  0.264999986       4.18668431E-29
  0.266250014       2.07826571E-28
  0.267500013       3.79726820E-28
  0.268750012       5.29449023E-28
  0.270000011       6.26025021E-28
  0.271250010       6.40356010E-28
  0.272500008       5.50667330E-28
  0.273750007       3.47904030E-28
  0.275000006       4.01109036E-29
  0.276250005      -3.45178068E-28
  0.277500004      -7.61373503E-28
  0.278750002      -1.14659498E-27
  0.280000001      -1.43080398E-27
  0.281250000      -1.54576774E-27
  0.282499999      -1.43673382E-27
  0.283749998      -1.07417982E-27
  0.284999996      -4.63701290E-28
  0.286249995       3.47971148E-28
  0.287499994       1.27252595E-27
  0.288749993       2.18629950E-27
  0.289999992       2.94336773E-27
  0.291249990       3.39459674E-27
  0.292499989       3.41063358E-27
  0.293749988       2.90584676E-27
  0.294999987       1.85956278E-27
  0.296249986       3.30833429E-28
  0.297500014      -1.53667649E-27
  0.298750013      -3.52201473E-27
  0.300000012      -5.34732138E-27
  0.301250011      -6.71021649E-27
  0.302500010      -7.32515591E-27
  0.303750008      -6.96893744E-27
  0.305000007      -5.52420379E-27
  0.306250006      -3.01423347E-27
  0.307500005       3.77418112E-28
  0.308750004       4.30753029E-27
  0.310000002       8.29706027E-27
  0.311250001       1.17782773E-26
  0.312500000       1.41620346E-26
  0.313749999       1.49187695E-26
  0.314999998       1.36639815E-26
  0.316249996       1.02370580E-26
  0.317499995       4.76137530E-27
  0.318749994      -2.32553422E-27
  0.319999993      -1.02809083E-26
  0.321249992      -1.81101047E-26
  0.322499990      -2.46647038E-26
  0.323749989      -2.87797258E-26
  0.324999988      -2.94380395E-26
  0.326249987      -2.59439373E-26
  0.327499986      -1.80832311E-26
  0.328750014      -6.24430707E-27
  0.330000013       8.52524908E-27
  0.331250012       2.45480387E-26
  0.332500011       3.96460999E-26
  0.333750010       5.13721937E-26
  0.335000008       5.73304416E-26
  0.336250007       5.55566263E-26
  0.337500006       4.49126493E-26
  0.338750005       2.54355780E-26
  0.340000004      -1.42471688E-27
  0.341250002      -3.27438043E-26
  0.342500001      -6.42880716E-26
  0.343750000      -9.09330689E-26
  0.344999999      -1.07324477E-25
  0.346249998      -1.08727195E-25
  0.347499996      -9.19625632E-26
  0.348749995      -5.62929786E-26
  0.349999994      -4.08839490E-27
  0.351249993       5.88941488E-26
  0.352499992       1.23759198E-25
  0.353749990       1.79332514E-25
  0.354999989       2.13624766E-25
  0.356249988       2.15782695E-25
  0.357499987       1.78295778E-25
  0.358749986       9.91223634E-26
  0.360000014      -1.66661981E-26
  0.361250013      -1.56134999E-25
  0.362500012      -2.98976853E-25
  0.363750011      -4.19452480E-25
  0.365000010      -4.89773020E-25
  0.366250008      -4.84655087E-25
  0.367500007      -3.86502573E-25
  0.368750006      -1.90429913E-25
  0.370000005       9.18169259E-26
  0.371250004       4.30001621E-25
  0.372500002       7.76414997E-25
  0.373750001       1.07025124E-24
  0.375000000       1.24533586E-24
  0.376249999       1.24060033E-24
  0.377499998       1.01207206E-24
  0.378749996       5.44609354E-25
  0.379999995      -1.38734453E-25
  0.381249994      -9.71883143E-25
  0.382499993      -1.84728229E-24
  0.383749992      -2.62493861E-24
  0.384999990      -3.14902190E-24
  0.386249989      -3.27079264E-24
  0.387499988      -2.87529407E-24
  0.388749987      -1.90806027E-24
  0.389999986      -3.97341744E-25
  0.391250014       1.53280328E-24
  0.392500013       3.66258731E-24
  0.393750012       5.69235876E-24
  0.395000011       7.27476088E-24
  0.396250010       8.06106036E-24
  0.397500008       7.75684798E-24
  0.398750007       6.17980735E-24
  0.400000006       3.31066541E-24
  0.401250005      -6.72119500E-25
  0.402500004      -5.38240703E-24
  0.403750002      -1.02471430E-23
  0.405000001      -1.45600089E-23
  0.406250000      -1.75652281E-23
  0.407499999      -1.85636831E-23
  0.408749998      -1.70286702E-23
  0.409999996      -1.27151922E-23
  0.411249995      -5.74503692E-24
  0.412499994       3.34901431E-24
  0.413749993       1.36328985E-23
  0.414999992       2.38416800E-23
  0.416249990       3.25094281E-23
  0.417499989       3.81481900E-23
  0.418749988       3.94571785E-23
  0.419999987       3.55360917E-23
  0.421249986       2.60726292E-23
  0.422500014       1.14739961E-23
  0.423750013      -7.08374058E-24
  0.425000012      -2.77060256E-23
  0.426250011      -4.79358744E-23
  0.427500010      -6.50075028E-23
  0.428750008      -7.61750533E-23
  0.430000007      -7.90813557E-23
  0.431250006      -7.21221510E-23
  0.432500005      -5.47573787E-23
  0.433750004      -2.77221973E-23
  0.435000002       6.90062388E-24
  0.436250001       4.57721773E-23
  0.437500000       8.45596476E-23
  0.438749999       1.18355187E-22
  0.439999998       1.42217409E-22
  0.441249996       1.51781849E-22
  0.442499995       1.43874648E-22
  0.443749994       1.17054968E-22
  0.444999993       7.20138183E-23
  0.446249992       1.17647876E-23
  0.447499990      -5.84198138E-23
  0.448749989      -1.31350642E-22
  0.449999988      -1.98535413E-22
  0.451249987      -2.51027278E-22
  0.452499986      -2.80439294E-22
  0.453750014      -2.80029112E-22
  0.455000013      -2.45735347E-22
  0.456250012      -1.77038045E-22
  0.457500011      -7.75153090E-23
  0.458750010       4.50145426E-23
  0.460000008       1.78844322E-22
  0.461250007       3.09256598E-22
  0.462500006       4.19902380E-22
  0.463750005       4.94588827E-22
  0.465000004       5.19314985E-22
  0.466250002       4.84339543E-22
  0.467500001       3.86017257E-22
  0.468750000       2.28131632E-22
  0.469999999       2.24660770E-23
  0.471249998      -2.11581810E-22
  0.472499996      -4.48446195E-22
  0.473749995      -6.58867685E-22
  0.474999994      -8.13222647E-22
  0.476249993      -8.85379615E-22
  0.477499992      -8.56626506E-22
  0.478749990      -7.19131306E-22
  0.479999989      -4.78375047E-22
  0.481249988      -1.54064345E-22
  0.482499987       2.20829607E-22
  0.483749986       6.03027743E-22
  0.485000014       9.43740680E-22
  0.486250013       1.19485321E-21
  0.487500012       1.31576042E-21
  0.488750011       1.27992255E-21
  0.490000010       1.08010876E-21
  0.491250008       7.31366602E-22
  0.492500007       2.70979350E-22
  0.493750006      -2.44960218E-22
  0.495000005      -7.48232473E-22
  0.496250004      -1.16776849E-21
  0.497500002      -1.44035480E-21
  0.498750001      -1.52120787E-21
  0.500000000      -1.39267781E-21
  0.501250029      -1.06942003E-21
  0.502499998      -5.98749920E-22
  0.503750026      -5.55215767E-23
  0.504999995       4.68275709E-22
  0.506250024       8.78087561E-22
  0.507499993       1.09354781E-21
  0.508750021       1.06477401E-21
  0.509999990       7.85270212E-22
  0.511250019       2.98674199E-22
  0.512499988      -3.02742121E-22
  0.513750017      -8.88782142E-22
  0.514999986      -1.31072625E-21
  0.516250014      -1.42730116E-21
  0.517499983      -1.13361902E-21
  0.518750012      -3.88382755E-22
  0.519999981       7.65776841E-22
  0.521250010       2.19361917E-21
  0.522499979       3.67378335E-21
  0.523750007       4.92194558E-21
  0.524999976       5.62950489E-21
  0.526250005       5.51383491E-21
  0.527499974       4.37351110E-21
  0.528750002       2.14001722E-21
  0.529999971      -1.08337557E-21
  0.531250000      -5.00421652E-21
  0.532500029      -9.15154098E-21
  0.533749998      -1.29175869E-20
  0.535000026      -1.56289767E-20
  0.536249995      -1.66409126E-20
  0.537500024      -1.54430791E-20
  0.538749993      -1.17625600E-20
  0.540000021      -5.64722343E-21
  0.541249990       2.48624582E-21
  0.542500019       1.18524610E-20
  0.543749988       2.13526190E-20
  0.545000017       2.96847075E-20
  0.546249986       3.54999165E-20
  0.547500014       3.75885831E-20
  0.548749983       3.50721639E-20
  0.550000012       2.75741950E-20
  0.551249981       1.53426381E-20
  0.552500010      -7.00031684E-22
  0.553749979      -1.89948974E-20
  0.555000007      -3.74779057E-20
  0.556249976      -5.37965732E-20
  0.557500005      -6.55910734E-20
  0.558749974      -7.08076233E-20
  0.560000002      -6.80040627E-20
  0.561249971      -5.66046931E-20
  0.562500000      -3.70646352E-20
  0.563750029      -1.09131513E-20
  0.564999998       1.93412679E-20
  0.566250026       5.04424173E-20
  0.567499995       7.87350961E-20
  0.568750024       1.00593447E-19
  0.569999993       1.12877958E-19
  0.571250021       1.13362854E-19
  0.572499990       1.01075538E-19
  0.573750019       7.64986389E-20
  0.574999988       4.15997208E-20
  0.576250017      -3.23736777E-22
  0.577499986      -4.49739295E-20
  0.578750014      -8.75216025E-20
  0.579999983      -1.23160188E-19
  0.581250012      -1.47677007E-19
  0.582499981      -1.57969447E-19
  0.583750010      -1.52438233E-19
  0.584999979      -1.31205308E-19
  0.586250007      -9.61252373E-20
  0.587499976      -5.05857392E-20
  0.588750005       8.78944327E-22
  0.589999974       5.31134352E-20
  0.591250002       1.00938097E-19
  0.592499971       1.39740183E-19
  0.593750000       1.65983264E-19
  0.595000029       1.77569208E-19
  0.596249998       1.74008712E-19
  0.597500026       1.56380938E-19
  0.598749995       1.27094337E-19
  0.600000024       8.94859690E-20
  0.601249993       4.73217621E-20
  0.602500021       4.27186078E-21
  0.603749990      -3.65595801E-20
  0.605000019      -7.29798319E-20
  0.606249988      -1.03874317E-19
  0.607500017      -1.29169280E-19
  0.608749986      -1.49592719E-19
  0.610000014      -1.66270593E-19
  0.611249983      -1.80221485E-19
  0.612500012      -1.91834739E-19
  0.613749981      -2.00427388E-19
  0.615000010      -2.03973511E-19
  0.616249979      -1.99082276E-19
  0.617500007      -1.81277691E-19
  0.618749976      -1.45588311E-19
  0.620000005      -8.74161046E-20
  0.621249974      -3.60158478E-21
  0.622500002       1.06439966E-19
  0.623749971       2.39672119E-19
  0.625000000       3.88662521E-19
  0.626250029       5.41261912E-19
  0.627499998       6.80894031E-19
  0.628750026       7.87565330E-19
  0.629999995       8.39625493E-19
  0.631250024       8.16216695E-19
  0.632499993       7.00239563E-19
  0.633750021       4.81552551E-19
  0.634999990       1.60028403E-19
  0.636250019      -2.51978059E-19
  0.637499988      -7.28217758E-19
  0.638750017      -1.22861488E-18
  0.639999986      -1.70114253E-18
  0.641250014      -2.08565009E-18
  0.642499983      -2.31957202E-18
  0.643750012      -2.34515464E-18
  0.644999981      -2.11758795E-18
  0.646250010      -1.61315719E-18
  0.647499979      -8.36351512E-19
  0.648750007       1.75193196E-19
  0.649999976       1.34898300E-18
  0.651250005       2.58002575E-18
  0.652499974       3.73771031E-18
  0.653750002       4.67714140E-18
  0.654999971       5.25425994E-18
  0.656250000       5.34346971E-18
  0.657500029       4.85592656E-18
  0.658749998       3.75625404E-18
  0.660000026       2.07530723E-18
  0.661249995      -8.33012300E-20
  0.662500024      -2.54467971E-18
  0.663749993      -5.07318183E-18
  0.665000021      -7.39196058E-18
  0.666249990      -9.21037323E-18
  0.667500019      -1.02568543E-17
  0.668749988      -1.03138611E-17
  0.670000017      -9.25073716E-18
  0.671249986      -7.05009841E-18
  0.672500014      -3.82363039E-18
  0.673749983       1.86001474E-19
  0.675000012       4.61895834E-18
  0.676249981       9.02782439E-18
  0.677500010       1.29210327E-17
  0.678749979       1.58161367E-17
  0.680000007       1.72973392E-17
  0.681249976       1.70704783E-17
  0.682500005       1.50084262E-17
  0.683749974       1.11803833E-17
  0.685000002       5.86001629E-18
  0.686249971      -4.90332556E-19
  0.687500000      -7.25927502E-18
  0.688750029      -1.37467533E-17
  0.689999998      -1.92391093E-17
  0.691250026      -2.30905731E-17
  0.692499995      -2.48013960E-17
  0.693750024      -2.40827398E-17
  0.694999993      -2.08995487E-17
  0.696250021      -1.54849369E-17
  0.697499990      -8.32302349E-18
  0.698750019      -1.01022101E-19
  0.699999988       8.36442058E-18
  0.701250017       1.62181746E-17
  0.702499986       2.26637992E-17
  0.703750014       2.70546046E-17
  0.704999983       2.89668427E-17
  0.706250012       2.82452732E-17
  0.707499981       2.50150137E-17
  0.708750010       1.96581061E-17
  0.709999979       1.27581285E-17
  0.711250007       5.02073775E-18
  0.712499976      -2.81824819E-18
  0.713750005      -1.00839090E-17
  0.714999974      -1.62390262E-17
  0.716250002      -2.09352233E-17
  0.717499971      -2.40312991E-17
  0.718750000      -2.55764593E-17
  0.720000029      -2.57622937E-17
  0.721249998      -2.48525290E-17
  0.722500026      -2.31039254E-17
  0.723749995      -2.06938206E-17
  0.725000024      -1.76694051E-17
  0.726249993      -1.39308349E-17
  0.727500021      -9.25502443E-18
  0.728749990      -3.35977955E-18
  0.730000019       3.99966311E-18
  0.731249988       1.29167247E-17
  0.732500017       2.32227367E-17
  0.733749986       3.44019354E-17
  0.735000014       4.55542095E-17
  0.736249983       5.54220506E-17
  0.737500012       6.24902991E-17
  0.738749981       6.51558654E-17
  0.740000010       6.19531412E-17
  0.741249979       5.18089721E-17
  0.742500007       3.42926153E-17
  0.743749976       9.82113113E-18
  0.745000005      -2.02183621E-17
  0.746249974      -5.34619370E-17
  0.747500002      -8.66974287E-17
  0.748749971      -1.16131658E-16
  0.750000000      -1.37780431E-16
  0.751250029      -1.47945501E-16
  0.752499998      -1.43726496E-16
  0.753750026      -1.23503770E-16
  0.754999995      -8.73240080E-17
  0.756250024      -3.71252390E-17
  0.757499993       2.32482436E-17
  0.758750021       8.82690983E-17
  0.759999990       1.51187850E-16
  0.761250019       2.04700176E-16
  0.762499988       2.41759932E-16
  0.763750017       2.56450713E-16
  0.764999986       2.44814201E-16
  0.766250014       2.05526920E-16
  0.767499983       1.40326691E-16
  0.768750012       5.41108800E-17
  0.769999981      -4.53365385E-17
  0.771250010      -1.47992048E-16
  0.772499979      -2.42568372E-16
  0.773750007      -3.17730873E-16
  0.774999976      -3.63428168E-16
  0.776250005      -3.72185827E-16
  0.777499974      -3.40203769E-16
  0.778750002      -2.68107686E-16
  0.779999971      -1.61236057E-16
  0.781250000      -2.93878776E-17
  0.782500029       1.13981240E-16
  0.783749998       2.53064381E-16
  0.785000026       3.71393189E-16
  0.786249995       4.53741786E-16
  0.787500024       4.88031691E-16
  0.788749993       4.67012092E-16
  0.790000021       3.89493913E-16
  0.791249990       2.60955790E-16
  0.792500019       9.33980019E-17
  0.793749988      -9.55969458E-17
  0.795000017      -2.84549363E-16
  0.796249986      -4.50369747E-16
  0.797500014      -5.71023926E-16
  0.798749983      -6.28285100E-16
  0.800000012      -6.10251134E-16
  0.801249981      -5.13304666E-16
  0.802500010      -3.43234082E-16
  0.803749979      -1.15311942E-16
  0.805000007       1.46766603E-16
  0.806249976       4.13053102E-16
  0.807500005       6.50456082E-16
  0.808749974       8.26498010E-16
  0.810000002       9.13323228E-16
  0.811249971       8.91497624E-16
  0.812500000       7.53122299E-16
  0.813750029       5.03835420E-16
  0.814999998       1.63358245E-16
  0.816250026      -2.35598191E-16
  0.817499995      -6.50082435E-16
  0.818750024      -1.03111777E-15
  0.819999993      -1.32900782E-15
  0.821250021      -1.49919294E-15
  0.822499990      -1.50800833E-15
  0.823750019      -1.33764968E-15
  0.824999988      -9.89695001E-16
  0.826250017      -4.86645469E-16
  0.827499986       1.28858421E-16
  0.828750014       7.97236674E-16
  0.829999983       1.44740492E-15
  0.831250012       2.00397577E-15
  0.832499981       2.39552162E-15
  0.833750010       2.56301751E-15
  0.834999979       2.46748787E-15
  0.836250007       2.09592607E-15
  0.837499976       1.46467667E-15
  0.838750005       6.19729750E-16
  0.839999974      -3.66301833E-16
  0.841250002      -1.40037776E-15
  0.842499971      -2.37787326E-15
  0.843750000      -3.19320981E-15
  0.845000029      -3.75115783E-15
  0.846249998      -3.97757185E-15
  0.847500026      -3.82832041E-15
  0.848749995      -3.29534293E-15
  0.850000024      -2.40904175E-15
  0.851249993      -1.23663454E-15
  0.852500021       1.23464171E-16
  0.853749990       1.55070790E-15
  0.855000019       2.91398117E-15
  0.856249988       4.08443395E-15
  0.857500017       4.94818098E-15
  0.858749986       5.41749441E-15
  0.860000014       5.43927543E-15
  0.861249983       4.99994231E-15
  0.862500012       4.12628797E-15
  0.863749981       2.88234406E-15
  0.865000010       1.36278030E-15
  0.866249979      -3.16286946E-16
  0.867500007      -2.02789132E-15
  0.868749976      -3.64498945E-15
  0.870000005      -5.05022473E-15