 -0.200000003       0.00000000    
 -0.198750004       0.00000000    
 -0.197500005       0.00000000    
 -0.196250007       0.00000000    
 -0.194999993       0.00000000    
 -0.193749994       0.00000000    
 -0.192499995       0.00000000    
 -0.191249996       0.00000000    
 -0.189999998       0.00000000    
 -0.188749999      -1.30513935E-36
 -0.187500000      -2.32021262E-35
 -0.186250001      -2.16998163E-34
 -0.185000002      -1.42129830E-33
 -0.183750004      -7.31426454E-33
 -0.182500005      -3.14380851E-32
 -0.181250006      -1.17088500E-31
 -0.180000007      -3.86902916E-31
 -0.178749993      -1.15223151E-30
 -0.177499995      -3.12556876E-30
 -0.176249996      -7.77759725E-30
 -0.174999997      -1.78334462E-29
 -0.173749998      -3.77668061E-29
 -0.172499999      -7.38902343E-29
 -0.171250001      -1.33278565E-28
 -0.170000002      -2.20459275E-28
 -0.168750003      -3.30933168E-28
 -0.167500004      -4.41718918E-28
 -0.166250005      -5.01826132E-28
 -0.165000007      -4.29904253E-28
 -0.163749993      -1.31063276E-28
 -0.162499994       4.53364968E-28
 -0.161249995       1.25626532E-27
 -0.159999996       1.97101500E-27
 -0.158749998       1.97148069E-27
 -0.157499999       3.80802139E-28
 -0.156250000      -3.54557347E-27
 -0.155000001      -9.55826320E-27
 -0.153750002      -1.50261809E-26
 -0.152500004      -1.32747017E-26
 -0.151250005       7.58766940E-27
 -0.150000006       6.39381871E-26
 -0.148750007       1.72017579E-25
 -0.147499993       3.37371108E-25
 -0.146249995       5.37339804E-25
 -0.144999996       6.98314366E-25
 -0.143749997       6.74172905E-25
 -0.142499998       2.38583610E-25
 -0.141249999      -8.89948105E-25
 -0.140000001      -2.96835599E-24
 -0.138750002      -6.07718128E-24
 -0.137500003      -9.89596029E-24
 -0.136250004      -1.34375766E-23
 -0.135000005      -1.48206201E-23
 -0.133750007      -1.12131813E-23
 -0.132499993       8.74089832E-25
 -0.131249994       2.47596854E-23
 -0.129999995       6.21021344E-23
 -0.128749996       1.10782034E-22
 -0.127499998       1.62456248E-22
 -0.126249999       2.00442967E-22
 -0.125000000       1.98979422E-22
 -0.123750001       1.25174391E-22
 -0.122500002      -5.50127929E-23
 -0.121250004      -3.65886966E-22
 -0.119999997      -8.06412492E-22
 -0.118749999      -1.33180027E-21
 -0.117500000      -1.83642638E-21
 -0.116250001      -2.14452935E-21
 -0.115000002      -2.01686202E-21
 -0.113750003      -1.18162175E-21
 -0.112499997       6.04304763E-22
 -0.111249998       3.46335958E-21
 -0.109999999       7.28318151E-21
 -0.108750001       1.16006329E-20
 -0.107500002       1.55167370E-20
 -0.106250003       1.76851070E-20
 -0.104999997       1.64196434E-20
 -0.103749998       9.95881029E-21
 -0.102499999      -3.09900611E-21
 -0.101250000      -2.32142681E-20
 -0.100000001      -4.92569996E-20
  -9.87500027E-02  -7.79263978E-20
  -9.74999964E-02  -1.03427943E-19
  -9.62499976E-02  -1.17624527E-19
  -9.49999988E-02  -1.10862714E-19
  -9.37500000E-02  -7.36005276E-20
  -9.25000012E-02   1.17956127E-21
  -9.12500024E-02   1.14993007E-19
  -9.00000036E-02   2.60776184E-19
  -8.87499973E-02   4.20412944E-19
  -8.74999985E-02   5.63742561E-19
  -8.62499997E-02   6.49959183E-19
  -8.50000009E-02   6.32148588E-19
  -8.37500021E-02   4.65285114E-19
  -8.25000033E-02   1.17343015E-19
  -8.12499970E-02  -4.17698654E-19
  -7.99999982E-02  -1.10712076E-18
  -7.87499994E-02  -1.86999563E-18
  -7.75000006E-02  -2.57446421E-18
  -7.62500018E-02  -3.04510743E-18
  -7.50000030E-02  -3.08285582E-18
  -7.37499967E-02  -2.49804347E-18
  -7.24999979E-02  -1.15458087E-18
  -7.12499991E-02   9.79992511E-19
  -7.00000003E-02   3.78703964E-18
  -6.87500015E-02   6.96300374E-18
  -6.75000027E-02   1.00114447E-17
  -6.62499964E-02   1.22721053E-17
  -6.49999976E-02   1.29943788E-17
  -6.37499988E-02   1.14559213E-17
  -6.25000000E-02   7.11800580E-18
  -6.12500012E-02  -2.01175999E-19
  -5.99999987E-02  -1.01642093E-17
  -5.87499999E-02  -2.17995079E-17
  -5.75000010E-02  -3.34726807E-17
  -5.62499985E-02  -4.29785709E-17
  -5.49999997E-02  -4.77754673E-17
  -5.37500009E-02  -4.53615359E-17
  -5.24999984E-02  -3.37657508E-17
  -5.12499996E-02  -1.20943070E-17
  -5.00000007E-02   1.89556213E-17
  -4.87499982E-02   5.67231098E-17
  -4.74999994E-02   9.64661273E-17
  -4.62500006E-02   1.31598731E-16
  -4.50000018E-02   1.54343895E-16
  -4.37499993E-02   1.56801985E-16
  -4.25000004E-02   1.32356627E-16
  -4.12500016E-02   7.72542554E-17
  -3.99999991E-02  -7.88492300E-18
  -3.87500003E-02  -1.16920775E-16
  -3.75000015E-02  -2.37723158E-16
  -3.62499990E-02  -3.52648350E-16
  -3.50000001E-02  -4.40131925E-16
  -3.37500013E-02  -4.77411804E-16
  -3.24999988E-02  -4.44192760E-16
  -3.12500000E-02  -3.26845609E-16
  -2.99999993E-02  -1.22536101E-16
  -2.87500005E-02   1.57462578E-16
  -2.74999999E-02   4.86060645E-16
  -2.62499992E-02   8.20944597E-16
  -2.50000004E-02   1.10793508E-15
  -2.37499997E-02   1.28720347E-15
  -2.25000009E-02   1.30196365E-15
  -2.12500002E-02   1.10874072E-15
  -1.99999996E-02   6.87834217E-16
  -1.87500007E-02   5.22497071E-17
  -1.75000001E-02  -7.46760340E-16
  -1.62499994E-02  -1.61924557E-15
  -1.49999997E-02  -2.44240680E-15
  -1.37499999E-02  -3.07316449E-15
  -1.25000002E-02  -3.36683124E-15
  -1.12500004E-02  -3.20012054E-15
  -9.99999978E-03  -2.49565319E-15
  -8.75000004E-03  -1.24426218E-15
  -7.49999983E-03   4.78967009E-16
  -6.25000009E-03   2.50880444E-15
  -4.99999989E-03   4.59712436E-15
  -3.74999992E-03   6.43475218E-15
  -2.49999994E-03   7.68731528E-15
  -1.24999997E-03   8.04211790E-15
   0.00000000       7.26078421E-15
   1.24999997E-03   5.23049579E-15
   2.49999994E-03   2.00557327E-15
   3.74999992E-03  -2.16884332E-15
   4.99999989E-03  -6.85789468E-15
   6.25000009E-03  -1.14671668E-14
   7.49999983E-03  -1.53024227E-14
   8.75000004E-03  -1.76549686E-14
   9.99999978E-03  -1.79041488E-14
   1.12500004E-02  -1.56244273E-14
   1.25000002E-02  -1.06818554E-14
   1.37499999E-02  -3.30379801E-15
   1.49999997E-02   5.89265956E-15
   1.62499994E-02   1.59243888E-14
   1.75000001E-02   2.55226358E-14
   1.87500007E-02   3.32672224E-14
   1.99999996E-02   3.77633681E-14
   2.12500002E-02   3.78419220E-14
   2.25000009E-02   3.27581522E-14
   2.37499997E-02   2.23604704E-14
   2.50000004E-02   7.20125643E-15
   2.62499992E-02  -1.14337894E-14
   2.74999999E-02  -3.15929398E-14
   2.87500005E-02  -5.08260561E-14
   2.99999993E-02  -6.64426603E-14
   3.12500000E-02  -7.58371637E-14
   3.24999988E-02  -7.68457021E-14
   3.37500013E-02  -6.80908373E-14
   3.50000001E-02  -4.92667871E-14
   3.62499990E-02  -2.13205240E-14
   3.75000015E-02   1.35069737E-14
   3.87500003E-02   5.18007776E-14
   3.99999991E-02   8.92557851E-14
   4.12500016E-02   1.21105993E-13
   4.25000004E-02   1.42660758E-13
   4.37499993E-02   1.49892075E-13
   4.50000018E-02   1.40005466E-13
   4.62500006E-02   1.11922922E-13
   4.74999994E-02   6.66104677E-14
   4.87499982E-02   7.19648933E-15
   5.00000007E-02  -6.11534545E-14
   5.12499996E-02  -1.31612562E-13
   5.24999984E-02  -1.96299167E-13
   5.37500009E-02  -2.47064359E-13
   5.49999997E-02  -2.76387230E-13
   5.62499985E-02  -2.78287972E-13
   5.75000010E-02  -2.49158035E-13
   5.87499999E-02  -1.88411380E-13
   5.99999987E-02  -9.88695413E-14
   6.12500012E-02   1.31807949E-14
   6.25000000E-02   1.38293755E-13
   6.37499988E-02   2.64531940E-13
   6.49999976E-02   3.78458956E-13
   6.62499964E-02   4.66385936E-13
   6.75000027E-02   5.15768418E-13
   6.87500015E-02   5.16629979E-13
   7.00000003E-02   4.62875018E-13
   7.12499991E-02   3.53350839E-13
   7.24999979E-02   1.92530670E-13
   7.37499967E-02  -9.28686161E-15
   7.50000030E-02  -2.36335880E-13
   7.62500018E-02  -4.68323785E-13
   7.75000006E-02  -6.81934001E-13
   7.87499994E-02  -8.52810335E-13
   7.99999982E-02  -9.57889475E-13
   8.12499970E-02  -9.77899944E-13
   8.25000033E-02  -8.99799766E-13
   8.37500021E-02  -7.18906000E-13
   8.50000009E-02  -4.40458894E-13
   8.62499997E-02  -8.03880752E-14
   8.74999985E-02   3.34912653E-13
   8.87499973E-02   7.69913267E-13
   9.00000036E-02   1.18240346E-12
   9.12500024E-02   1.52697505E-12
   9.25000012E-02   1.75932001E-12
   9.37500000E-02   1.84099806E-12
   9.49999988E-02   1.74423843E-12
   9.62499976E-02   1.45626534E-12
   9.74999964E-02   9.82615465E-13
   9.87500027E-02   3.48944289E-13
  0.100000001      -3.99081674E-13
  0.101250000      -1.19805522E-12
  0.102499999      -1.97131309E-12
  0.103749998      -2.63542877E-12
  0.104999997      -3.10827189E-12
  0.106250003      -3.31794531E-12
  0.107500002      -3.21171713E-12
  0.108750001      -2.76397330E-12
  0.109999999      -1.98217072E-12
  0.111249998      -9.09896724E-13
  0.112499997       3.73660331E-13
  0.113750003       1.75818236E-12
  0.115000002       3.11060466E-12
  0.116250001       4.28691891E-12
  0.117500000       5.14646051E-12
  0.118749999       5.56736992E-12
  0.119999997       5.46163375E-12
  0.121250004       4.78798902E-12
  0.122500002       3.56103124E-12
  0.123750001       1.85514776E-12
  0.125000000      -1.97687231E-13
  0.126249999      -2.41661162E-12
  0.127499998      -4.58670255E-12
  0.128749996      -6.47888947E-12
  0.129999995      -7.87320469E-12
  0.131249994      -8.58309344E-12
  0.132499993      -8.47822680E-12
  0.133750007      -7.50313874E-12
  0.135000005      -5.68931577E-12
  0.136250004      -3.15884775E-12
  0.137500003      -1.18574719E-13
  0.138750002       3.15539153E-12
  0.140000001       6.34180555E-12
  0.141249999       9.10512898E-12
  0.142499998       1.11301680E-11
  0.143749997       1.21570367E-11
  0.144999996       1.20126218E-11
  0.146249995       1.06349200E-11
  0.147499993       8.08708135E-12
  0.148750007       4.55896345E-12
  0.150000006       3.55188264E-13
  0.151250005      -4.12983406E-12
  0.152500004      -8.44809465E-12
  0.153750002      -1.21421068E-11
  0.155000001      -1.47927347E-11
  0.156250000      -1.60657668E-11
  0.157499999      -1.57521583E-11
  0.158749998      -1.37972463E-11
  0.159999996      -1.03152148E-11
  0.161249995      -5.58642108E-12
  0.162499994      -3.69295387E-14
  0.163749993       5.79847932E-12
  0.165000007       1.13267694E-11
  0.166250005       1.59558859E-11
  0.167500004       1.91569399E-11
  0.168750003       2.05228595E-11
  0.170000002       1.98171948E-11
  0.171250001       1.70073643E-11
  0.172499999       1.22781446E-11
  0.173749998       6.02311343E-12
  0.174999997      -1.18615252E-12
  0.176249996      -8.65084220E-12
  0.177499995      -1.56111860E-11
  0.178749993      -2.13220830E-11
  0.180000007      -2.51305747E-11
  0.181250006      -2.65471360E-11
  0.182500005      -2.53033480E-11
  0.183750004      -2.13892445E-11
  0.185000002      -1.50658340E-11
  0.186250001      -6.85053099E-12
  0.187500000       2.52406950E-12
  0.188749999       1.21747759E-11
  0.189999998       2.11501146E-11
  0.191249996       2.85225246E-11
  0.192499995       3.34816966E-11
  0.193749994       3.54193862E-11
  0.194999993       3.39973015E-11
  0.196250007       2.91905458E-11
  0.197500005       2.13016462E-11
  0.198750004       1.09429757E-11
  0.200000003      -1.01151596E-12
  0.201250002      -1.35014153E-11
  0.202500001      -2.53750510E-11
  0.203749999      -3.54960054E-11
  0.204999998      -4.28509450E-11
  0.206249997      -4.66483137E-11
  0.207499996      -4.63984302E-11
  0.208749995      -4.19669265E-11
  0.209999993      -3.35961328E-11
  0.211250007      -2.18919206E-11
  0.212500006      -7.77687723E-12
  0.213750005       7.58630572E-12
  0.215000004       2.28942663E-11
  0.216250002       3.68164006E-11
  0.217500001       4.81119242E-11
  0.218750000       5.57401902E-11
  0.219999999       5.89540708E-11
  0.221249998       5.73683601E-11
  0.222499996       5.09972030E-11
  0.223749995       4.02572142E-11
  0.224999994       2.59363607E-11
  0.226249993       9.13147943E-12
  0.227500007      -8.84005889E-12
  0.228750005      -2.65468030E-11
  0.230000004      -4.25589217E-11
  0.231250003      -5.55633664E-11
  0.232500002      -6.44695061E-11
  0.233750001      -6.84968263E-11
  0.234999999      -6.72379721E-11
  0.236249998      -6.06930964E-11
  0.237499997      -4.92728844E-11
  0.238749996      -3.37707605E-11
  0.239999995      -1.53067663E-11
  0.241249993       4.75265010E-12
  0.242500007       2.48928031E-11
  0.243750006       4.35604226E-11
  0.245000005       5.92764171E-11
  0.246250004       7.07455136E-11
  0.247500002       7.69543179E-11
  0.248750001       7.72522740E-11
  0.250000000       7.14098364E-11
  0.251249999       5.96496047E-11
  0.252499998       4.26480726E-11
  0.253749996       2.15066697E-11
  0.254999995      -2.30729585E-12
  0.256249994      -2.70475448E-11
  0.257499993      -5.07996943E-11
  0.258749992      -7.16105023E-11
  0.259999990      -8.76281409E-11
  0.261249989      -9.72459405E-11
  0.262499988      -9.92390753E-11
  0.263749987      -9.28853661E-11
  0.264999986      -7.80598017E-11
  0.266250014      -5.52938667E-11
  0.267500013      -2.57917385E-11
  0.268750012       8.60201060E-12
  0.270000011       4.54860975E-11
  0.271250010       8.20366969E-11
  0.272500008       1.15187436E-10
  0.273750007       1.41846521E-10
  0.275000006       1.59138425E-10
  0.276250005       1.64653846E-10
  0.277500004       1.56689592E-10
  0.278750002       1.34457875E-10
  0.280000001       9.82455159E-11
  0.281250000       4.95044908E-11
  0.282499999      -9.14133786E-12
  0.283749998      -7.39823550E-11
  0.284999996      -1.40406561E-10
  0.286249995      -2.03175157E-10
  0.287499994      -2.56778460E-10
  0.288749993      -2.95851926E-10
  0.289999992      -3.15625137E-10
  0.291249990      -3.12369852E-10
  0.292499989      -2.83811225E-10
  0.293749988      -2.29464253E-10
  0.294999987      -1.50859825E-10
  0.296249986      -5.16304846E-11
  0.297500014       6.25662092E-11
  0.298750013       1.84296425E-10
  0.300000012       3.04768877E-10
  0.301250011       4.14406259E-10
  0.302500010       5.03537823E-10
  0.303750008       5.63166680E-10
  0.305000007       5.85759219E-10
  0.306250006       5.65989422E-10
  0.307500005       5.01375552E-10
  0.308750004       3.92745114E-10
  0.310000002       2.44472137E-10
  0.311250001       6.44482592E-11
  0.312500000      -1.36236619E-10
  0.313749999      -3.43903600E-10
  0.314999998      -5.43158796E-10
  0.316249996      -7.17984505E-10
  0.317499995      -8.52973692E-10
  0.318749994      -9.34619382E-10
  0.319999993      -9.52555035E-10
  0.321249992      -9.00637231E-10
  0.322499990      -7.77768738E-10
  0.323749989      -5.88370852E-10
  0.324999988      -3.42436940E-10
  0.326249987      -5.51303204E-11
  0.327499986       2.54075122E-10
  0.328750014       5.62674629E-10
  0.330000013       8.46754444E-10
  0.331250012       1.08284637E-09
  0.332500011       1.24987021E-09
  0.333750010       1.33100864E-09
  0.335000008       1.31534972E-09
  0.336250007       1.19913890E-09
  0.337500006       9.86507875E-10
  0.338750005       6.89585333E-10
  0.340000004       3.27936039E-10
  0.341250002      -7.26620430E-11
  0.342500001      -4.82040907E-10
  0.343750000      -8.67943883E-10
  0.344999999      -1.19863164E-09
  0.346249998      -1.44558843E-09
  0.347499996      -1.58609326E-09
  0.348749995      -1.60542235E-09
  0.349999994      -1.49847179E-09
  0.351249993      -1.27062028E-09
  0.352499992      -9.37714906E-10
  0.353749990      -5.25130939E-10
  0.354999989      -6.59424737E-11
  0.356249988       4.01686712E-10
  0.357499987       8.37698300E-10
  0.358749986       1.20366028E-09
  0.360000014       1.46632295E-09
  0.361250013       1.60088309E-09
  0.362500012       1.59364699E-09
  0.363750011       1.44381895E-09
  0.365000010       1.16420185E-09
  0.366250008       7.80688292E-10
  0.367500007       3.30526828E-10
  0.368750006      -1.40563422E-10
  0.370000005      -5.82203508E-10
  0.371250004      -9.43821910E-10
  0.372500002      -1.17938315E-09
  0.373750001      -1.25197208E-09
  0.375000000      -1.13780152E-09
  0.376249999      -8.29242564E-10
  0.377499998      -3.36538908E-10
  0.378749996       3.12028459E-10
  0.379999995       1.07163622E-09
  0.381249994       1.88403315E-09
  0.382499993       2.68210676E-09
  0.383749992       3.39556272E-09
  0.384999990       3.95727229E-09
  0.386249989       4.30978941E-09
  0.387499988       4.41140902E-09
  0.388749987       4.24127977E-09
  0.389999986       3.80297882E-09
  0.391250014       3.12618886E-09
  0.392500013       2.26621233E-09
  0.393750012       1.30121347E-09
  0.395000011       3.27336380E-10
  0.396250010      -5.48038115E-10
  0.397500008      -1.21441224E-09
  0.398750007      -1.56702873E-09
  0.400000006      -1.51570212E-09
  0.401250005      -9.93049531E-10
  0.402500004       3.89108294E-11
  0.403750002       1.58418145E-09
  0.405000001       3.61083186E-09
  0.406250000       6.05194828E-09
  0.407499999       8.80966233E-09
  0.408749998       1.17618670E-08
  0.409999996       1.47713388E-08
  0.411249995       1.76967205E-08
  0.412499994       2.04042507E-08
  0.413749993       2.27795152E-08
  0.414999992       2.47384584E-08
  0.416249990       2.62361262E-08
  0.417499989       2.72730674E-08
  0.418749988       2.78980767E-08
  0.419999987       2.82076620E-08
  0.421249986       2.83413257E-08
  0.422500014       2.84737283E-08
  0.423750013       2.88034894E-08
  0.425000012       2.95400717E-08
  0.426250011       3.08895700E-08
  0.427500010       3.30398144E-08
  0.428750008       3.61471812E-08
  0.430000007       4.03251939E-08
  0.431250006       4.56366109E-08
  0.432500005       5.20889643E-08
  0.433750004       5.96349636E-08
  0.435000002       6.81769379E-08
  0.436250001       7.75754287E-08
  0.437500000       8.76615829E-08
  0.438749999       9.82522508E-08
  0.439999998       1.09166685E-07
  0.441249996       1.20242490E-07
  0.442499995       1.31352593E-07
  0.443749994       1.42417818E-07
  0.444999993       1.53417716E-07
  0.446249992       1.64395217E-07
  0.447499990       1.75458396E-07
  0.448749989       1.86776006E-07
  0.449999988       1.98568870E-07
  0.451249987       2.11096392E-07
  0.452499986       2.24640644E-07
  0.453750014       2.39488912E-07
  0.455000013       2.55914472E-07
  0.456250012       2.74158481E-07
  0.457500011       2.94415628E-07
  0.458750010       3.16820262E-07
  0.460000008       3.41440398E-07
  0.461250007       3.68275238E-07
  0.462500006       3.97258020E-07
  0.463750005       4.28262609E-07
  0.465000004       4.61119583E-07
  0.466250002       4.95628569E-07
  0.467500001       5.31579474E-07
  0.468750000       5.68772123E-07
  0.469999999       6.07031382E-07
  0.471249998       6.46231513E-07
  0.472499996       6.86302201E-07
  0.473749995       7.27241797E-07
  0.474999994       7.69118117E-07
  0.476249993       8.12068436E-07
  0.477499992       8.56290001E-07
  0.478749990       9.02029683E-07
  0.479999989       9.49559649E-07
  0.481249988       9.99169629E-07
  0.482499987       1.05113156E-06
  0.483749986       1.10568556E-06
  0.485000014       1.16302215E-06
  0.486250013       1.22325719E-06
  0.487500012       1.28642989E-06
  0.488750011       1.35249252E-06
  0.490000010       1.42129772E-06
  0.491250008       1.49262792E-06
  0.492500007       1.56618682E-06
  0.493750006       1.64162373E-06
  0.495000005       1.71855243E-06
  0.496250004       1.79658923E-06
  0.497500002       1.87534056E-06
  0.498750001       1.95446228E-06
  0.500000000       2.03365698E-06
  0.501250029       2.11270935E-06
  0.502499998       2.19147273E-06
  0.503750026       2.26988504E-06
  0.504999995       2.34795766E-06
  0.506250024       2.42577858E-06
  0.507499993       2.50348967E-06
  0.508750021       2.58125806E-06
  0.509999990       2.65925155E-06
  0.511250019       2.73761270E-06
  0.512499988       2.81645339E-06
  0.513750017       2.89579043E-06
  0.514999986       2.97557585E-06
  0.516250014       3.05563458E-06
  0.517499983       3.13568967E-06
  0.518750012       3.21538778E-06
  0.519999981       3.29424506E-06
  0.521250010       3.37170081E-06
  0.522499979       3.44716955E-06
  0.523750007       3.52003235E-06
  0.524999976       3.58967031E-06
  0.526250005       3.65551091E-06
  0.527499974       3.71704664E-06
  0.528750002       3.77386277E-06
  0.529999971       3.82570079E-06
  0.531250000       3.87239288E-06
  0.532500029       3.91390358E-06
  0.533749998       3.95030975E-06
  0.535000026       3.98175780E-06
  0.536249995       4.00852196E-06
  0.537500024       4.03089189E-06
  0.538749993       4.04919501E-06
  0.540000021       4.06368963E-06
  0.541249990       4.07461175E-06
  0.542500019       4.08211235E-06
  0.543749988       4.08623873E-06
  0.545000017       4.08686310E-06
  0.546249986       4.08381402E-06
  0.547500014       4.07677453E-06
  0.548749983       4.06536037E-06
  0.550000012       4.04909633E-06
  0.551249981       4.02751039E-06
  0.552500010       4.00008003E-06
  0.553749979       3.96638143E-06
  0.555000007       3.92611992E-06
  0.556249976       3.87903947E-06
  0.557500005       3.82494500E-06
  0.558749974       3.76396042E-06
  0.560000002       3.69617806E-06
  0.561249971       3.62203286E-06
  0.562500000       3.54194731E-06
  0.563750029       3.45656940E-06
  0.564999998       3.36650555E-06
  0.566250026       3.27242037E-06
  0.567499995       3.17505783E-06
  0.568750024       3.07497294E-06
  0.569999993       2.97281713E-06
  0.571250021       2.86900104E-06
  0.572499990       2.76392052E-06
  0.573750019       2.65779454E-06
  0.574999988       2.55067835E-06
  0.576250017       2.44259923E-06
  0.577499986       2.33346395E-06
  0.578750014       2.22323547E-06
  0.579999983       2.11169618E-06
  0.581250012       1.99872989E-06
  0.582499981       1.88419699E-06
  0.583750010       1.76795982E-06
  0.584999979       1.65023744E-06
  0.586250007       1.53117719E-06
  0.587499976       1.41096234E-06
  0.588750005       1.28989564E-06
  0.589999974       1.16841727E-06
  0.591250002       1.04698847E-06
  0.592499971       9.26168923E-07
  0.593750000       8.06527225E-07
  0.595000029       6.88372154E-07
  0.596249998       5.72355020E-07
  0.597500026       4.58916787E-07
  0.598749995       3.48321066E-07
  0.600000024       2.40977329E-07
  0.601249993       1.36986188E-07
  0.602500021       3.65369601E-08
  0.603749990      -6.06129831E-08
  0.605000019      -1.54151891E-07
  0.606249988      -2.44364486E-07
  0.607500017      -3.31280063E-07
  0.608749986      -4.14934647E-07
  0.610000014      -4.95444738E-07
  0.611249983      -5.72862859E-07
  0.612500012      -6.46956153E-07
  0.613749981      -7.17702108E-07
  0.615000010      -7.85120221E-07
  0.616249979      -8.49022683E-07
  0.617500007      -9.09174446E-07
  0.618749976      -9.65357572E-07
  0.620000005      -1.01735804E-06
  0.621249974      -1.06505331E-06
  0.622500002      -1.10816711E-06
  0.623749971      -1.14649345E-06
  0.625000000      -1.18018784E-06
  0.626250029      -1.20872301E-06
  0.627499998      -1.23272991E-06
  0.628750026      -1.25220561E-06
  0.629999995      -1.26738882E-06
  0.631250024      -1.27844658E-06
  0.632499993      -1.28609975E-06
  0.633750021      -1.29080377E-06
  0.634999990      -1.29253760E-06
  0.636250019      -1.29233331E-06
  0.637499988      -1.28996544E-06
  0.638750017      -1.28620945E-06
  0.639999986      -1.28090744E-06
  0.641250014      -1.27445617E-06
  0.642499983      -1.26687200E-06
  0.643750012      -1.25766235E-06
  0.644999981      -1.24690212E-06
  0.646250010      -1.23417374E-06
  0.647499979      -1.21913467E-06
  0.648750007      -1.20123957E-06
  0.649999976      -1.18017283E-06
  0.651250005      -1.15545379E-06
  0.652499974      -1.12720102E-06
  0.653750002      -1.09513519E-06
  0.654999971      -1.05966353E-06
  0.656250000      -1.02076024E-06
  0.657500029      -9.79017500E-07
  0.658749998      -9.35175819E-07
  0.660000026      -8.89707053E-07
  0.661249995      -8.43605790E-07
  0.662500024      -7.97805001E-07
  0.663749993      -7.53542679E-07
  0.665000021      -7.11412270E-07
  0.666249990      -6.72352769E-07
  0.667500019      -6.36837456E-07
  0.668749988      -6.05267417E-07
  0.670000017      -5.77716378E-07
  0.671249986      -5.53942300E-07
  0.672500014      -5.33841671E-07
  0.673749983      -5.16814907E-07
  0.675000012      -5.01909597E-07
  0.676249981      -4.88745513E-07
  0.677500010      -4.76443830E-07
  0.678749979      -4.63925801E-07
  0.680000007      -4.51018650E-07
  0.681249976      -4.37085362E-07
  0.682500005      -4.22004206E-07
  0.683749974      -4.05640037E-07
  0.685000002      -3.88402952E-07
  0.686249971      -3.70647541E-07
  0.687500000      -3.53188113E-07
  0.688750029      -3.36868993E-07
  0.689999998      -3.22998801E-07
  0.691250026      -3.12071819E-07
  0.692499995      -3.04969973E-07
  0.693750024      -3.02611198E-07
  0.694999993      -3.04849777E-07
  0.696250021      -3.12384316E-07
  0.697499990      -3.24591355E-07
  0.698750019      -3.41266542E-07
  0.699999988      -3.61663183E-07
  0.701250017      -3.84453131E-07
  0.702499986      -4.08954349E-07
  0.703750014      -4.34314927E-07
  0.704999983      -4.59021948E-07
  0.706250012      -4.82812538E-07
  0.707499981      -5.04960951E-07
  0.708750010      -5.24686016E-07
  0.709999979      -5.42136434E-07
  0.711250007      -5.57232568E-07
  0.712499976      -5.70485270E-07
  0.713750005      -5.82441430E-07
  0.714999974      -5.93497589E-07
  0.716250002      -6.04245827E-07
  0.717499971      -6.15611498E-07
  0.718750000      -6.27851591E-07
  0.720000029      -6.41123791E-07
  0.721249998      -6.55839870E-07
  0.722500026      -6.71496423E-07
  0.723749995      -6.87642739E-07
  0.725000024      -7.03626824E-07
  0.726249993      -7.18431522E-07
  0.727500021      -7.31555019E-07
  0.728749990      -7.41843451E-07
  0.730000019      -7.48212187E-07
  0.731249988      -7.49816707E-07
  0.732500017      -7.46628643E-07
  0.733749986      -7.38034885E-07
  0.735000014      -7.23716994E-07
  0.736249983      -7.03608805E-07
  0.737500012      -6.78724462E-07
  0.738749981      -6.48952835E-07
  0.740000010      -6.15617523E-07
  0.741249979      -5.79070047E-07
  0.742500007      -5.39900839E-07
  0.743749976      -4.99235284E-07
  0.745000005      -4.56664679E-07
  0.746249974      -4.13144534E-07
  0.747500002      -3.68670385E-07
  0.748749971      -3.22435397E-07
  0.750000000      -2.74851260E-07
  0.751250029      -2.24908362E-07
  0.752499998      -1.71792379E-07
  0.753750026      -1.15223862E-07
  0.754999995      -5.49128636E-08
  0.756250024       9.87229587E-09
  0.757499993       7.94350967E-08
  0.758750021       1.53802588E-07
  0.759999990       2.32980781E-07
  0.761250019       3.17143929E-07
  0.762499988       4.05258419E-07
  0.763750017       4.97385827E-07
  0.764999986       5.93378900E-07
  0.766250014       6.92746426E-07
  0.767499983       7.94049015E-07
  0.768750012       8.97178495E-07
  0.769999981       1.00186446E-06
  0.771250010       1.10781252E-06
  0.772499979       1.21440360E-06
  0.773750007       1.32159414E-06
  0.774999976       1.42974466E-06
  0.776250005       1.53864642E-06
  0.777499974       1.64742949E-06
  0.778750002       1.75638081E-06
  0.779999971       1.86534555E-06
  0.781250000       1.97359373E-06
  0.782500029       2.08123947E-06
  0.783749998       2.18761420E-06
  0.785000026       2.29307557E-06
  0.786249995       2.39736642E-06
  0.787500024       2.49999857E-06
  0.788749993       2.60093316E-06
  0.790000021       2.70026158E-06
  0.791249990       2.79747906E-06
  0.792500019       2.89253308E-06
  0.793749988       2.98559053E-06
  0.795000017       3.07660321E-06
  0.796249986       3.16522687E-06
  0.797500014       3.25088808E-06
  0.798749983       3.33379216E-06
  0.800000012       3.41315808E-06
  0.801249981       3.48895583E-06
  0.802500010       3.56011719E-06
  0.803749979       3.62687661E-06
  0.805000007       3.68782617E-06
  0.806249976       3.74294473E-06
  0.807500005       3.79126368E-06
  0.808749974       3.83245651E-06
  0.810000002       3.86678812E-06
  0.811249971       3.89397383E-06
  0.812500000       3.91415870E-06
  0.813750029       3.92824541E-06
  0.814999998       3.93562823E-06
  0.816250026       3.93776463E-06
  0.817499995       3.93474011E-06
  0.818750024       3.92697257E-06
  0.819999993       3.91513231E-06
  0.821250021       3.90018477E-06
  0.822499990       3.88072112E-06
  0.823750019       3.85794192E-06
  0.824999988       3.83111183E-06
  0.826250017       3.79978678E-06
  0.827499986       3.76264143E-06
  0.828750014       3.71930605E-06
  0.829999983       3.66895142E-06
  0.831250012       3.61167668E-06
  0.832499981       3.54687950E-06
  0.833750010       3.47379523E-06
  0.834999979       3.39330381E-06
  0.836250007       3.30570310E-06
  0.837499976       3.21226412E-06
  0.838750005       3.11318809E-06
  0.839999974       3.01033970E-06
  0.841250002       2.90410321E-06
  0.842499971       2.79651590E-06
  0.843750000       2.68877716E-06
  0.845000029       2.58137334E-06
  0.846249998       2.47539379E-06
  0.847500026       2.37127415E-06
  0.848749995       2.26846760E-06
  0.850000024       2.16755416E-06
  0.851249993       2.06717846E-06
  0.852500021       1.96610881E-06
  0.853749990       1.86481680E-06
  0.855000019       1.76128310E-06
  0.856249988       1.65524341E-06
  0.857500017       1.54677889E-06
  0.858749986       1.43566706E-06
  0.860000014       1.32225966E-06
  0.861249983       1.20748200E-06
  0.862500012       1.09156554E-06
  0.863749981       9.75592002E-07
  0.865000010       8.61268063E-07
  0.866249979       7.49287892E-07
  0.867500007       6.41580527E-07
  0.868749976       5.38176096E-07
  0.870000005       4.40240399E-07